material_id,pretty_formula,band_gap
mp-21813,U2Nb3Ge4,0.0
mp-21916,Sm(Ni2P)2,0.0
mp-2196,BaSb2,0.0
mp-21981,YNiSn2,0.0
mp-22266,GdB6,0.0
mp-22559,Pu(SiRu)2,0.0
mp-22693,Te2W,0.0
mp-22726,Sr2LuIrO6,0.0
mp-23090,La3Si2S8I,2.5208
mp-23155,Ar,8.604800000000001
mp-2349,YCd3,0.0
mp-23583,Cs4BiSbCl12,0.6368
mp-24096,NdH2,0.0
mp-2500,AlCu,0.0
mp-27668,Mg2Ga5,0.0
mp-27735,GaSbCl6,3.905599999999999
mp-28170,Ca5Ni15B4,0.0
mp-28198,RbInI4,2.5376000000000003
mp-28287,ReBi3O8,2.7284
mp-29366,PWO5,1.8714
mp-29639,Te7Pd20,0.0
mp-29924,Nb3Cl5O2,0.8504
mp-30361,Zn8Ag5,0.0
mp-30439,Ta6Be15Cu8,0.0
mp-30501,Ti2Cd,0.0
mp-30527,TaS3,0.0
mp-30710,Pr2Zn17,0.0
mp-30753,LaPd5,0.0
mp-30981,Te(HO)6,3.0914
mp-31163,Ce2Si3Rh,0.0
mp-31205,Zr3Fe,0.0
mp-31245,Tb2Te4O11,3.3634999999999993
mp-3613,NaErS2,2.3615
mp-36529,Na3(WO3)10,0.0
mp-3678,Tb(SiRu)2,0.0
mp-3709,Tb(CoGe)2,0.0
mp-3779,CrSiTe3,0.0
mp-3790,SrNb8O14,0.26020000000000004
mp-458,Ti2O3,0.0
mp-4709,PrNbO4,3.8553
mp-4835,LaCuSi,0.0
mp-4883,Ba(FeP)2,0.0
mp-5042,YTiGe,0.0
mp-504555,KU2F9,0.18880000000000002
mp-505229,Al3FeSi2,0.0
mp-505412,KInS2,2.0103
mp-505622,Mn4N,0.0
mp-510710,Cs2AgSbS4,1.7203
mp-5161,Sm(GeRh)2,0.0
mp-5176,Y(SiNi)2,0.0
mp-5311,UBN,0.0
mp-5396,MnCo2Sb,0.0
mp-540881,Cs2AgI3,2.6311
mp-541010,Li2Ni12P7,0.0
mp-541788,P2S5,2.5773
mp-542181,K3EuV2O8,0.0
mp-542765,EuDyCuS3,0.0
mp-5434,Y2Fe14B,0.0
mp-5454,Er3(CuSi)4,0.0
mp-555424,CaNb2(P2O7)3,2.3702
mp-555546,MgAs2(XeF5)4,2.8781
mp-556143,Na3Ga3(TeO6)2,1.8466999999999991
mp-556244,Xe2NO2F13,2.9161
mp-556300,Fe3B7ClO13,2.8149
mp-557531,Pb2S(O2F)2,3.8558
mp-557763,Nd3NbO7,2.804599999999999
mp-557872,K4MoS3O14,2.7204
mp-558208,RbInAs2O7,2.5711999999999993
mp-558223,TbMoClO4,2.9098
mp-558576,ReSb(OF4)2,3.784399999999999
mp-559257,AgTeO3,1.4215
mp-559319,Zn2P2O7,3.6869
mp-560398,K2Zn(GeO3)2,2.8776
mp-560959,KTl2MoF6,2.5946
mp-560995,Y(IO3)3,3.4466
mp-561272,Nd3BWO9,3.8361
mp-562797,Ti2Co(PO5)2,1.9118
mp-562961,Cs4U3Mo3O20,2.088899999999999
mp-567014,Rb2Te(WO4)3,2.990599999999999
mp-567678,Y7FeI12,0.0
mp-567714,Rb2AgBr3,2.6710000000000003
mp-568596,SmInAu2,0.0
mp-568779,Tb3CuSiSe7,1.6132
mp-568841,Np3Te4,0.0
mp-569073,LiSn,0.0
mp-569323,Cs3CoI5,0.9287000000000001
mp-569393,GdTlSe2,0.8310000000000001
mp-569529,Ba2Bi3,0.0
mp-569557,Dy3CuSiSe7,1.633999999999999
mp-569570,K8Tl11,0.0
mp-569760,Dy5Pb3,0.0
mp-569768,NdInAg2,0.0
mp-569897,Cs(BBr)6,2.8672
mp-570606,Pr4Ge3,0.152099999999999
mp-570838,CdHg4(AsI2)2,0.4617
mp-570962,SbI3(BrCl3)2,1.1707
mp-571069,Ba3(CdSb2)2,0.0
mp-571264,Ca5Au4,0.0
mp-571293,Rb2BaNb2Se11,1.511499999999999
mp-571557,V6Ga5,0.0
mp-580999,Ga2NiCl8,0.4607
mp-5816,UBC,0.0
mp-581963,K4Hf3Te17,0.9008
mp-606,U3As4,0.0
mp-617291,Mn5Ge3,0.0
mp-6192,Ba2DySbO6,3.4686
mp-622190,Er2Mn3Si5,0.0
mp-6345,Ba3TbRu2O9,0.0
mp-639789,Fe2Re3,0.0
mp-642792,BaBi2(MoO4)4,3.023
mp-643460,SnHg2(SBr)2,1.9458000000000002
mp-647391,CeP5O14,0.575199999999999
mp-6641,Ba3SrRu2O9,0.0
mp-6651,K2Ta2(OF2)3,3.9245
mp-6671,Sm4Si2S3O7,2.5838
mp-669415,Ba3Bi6PbSe13,0.8085
mp-672221,Co21(B3W)2,0.0
mp-676330,Nb12Br17F13,0.11969999999999902
mp-680015,Re3(SeBr)7,1.3152
mp-680063,K3La2(NO3)9,3.4662
mp-681,EuZn2,0.0
mp-7028,YbOF,2.3315
mp-721253,Li10Si(PSe6)2,1.4633
mp-722294,Nb3Zn3N,0.0
mp-734,LaHg,0.0
mp-752579,Tm2TiO5,3.3032
mp-752602,BiBr3,2.9063
mp-753,ZnSb,0.076499999999999
mp-754370,Ba3GeO5,2.953999999999999
mp-754768,Tb2Pt2O7,1.3984
mp-754875,TbSi2Rh3,0.0
mp-757454,Mn6PbO12,0.0
mp-757840,Ba4(PtO3)3,1.5953
mp-761284,Eu2Mn2O7,0.0
mp-765640,Sm3Ta17O47,2.3312
mp-766540,Li4TiS4,2.3811
mp-769971,BaGa4O7,2.3813
mp-770239,Ba2Ta2O7,2.9093
mp-776870,Li2V3SnO8,1.2443
mp-777667,LiV2O5,1.6295000000000002
mp-777767,Li3Cu2(SO4)3,0.0
mp-7834,TaSe2,0.0
mp-7859,ZrS,0.0
mp-81,Au,0.0
mp-8126,YCuSi,0.0
mp-861886,LiDyHg2,0.0
mp-862614,LiTm2Ru,0.0
mp-862706,BeCo2Ge,0.0
mp-862712,Sc2CoIr,0.0
mp-862734,Pm2ZnSn,0.0
mp-862795,CaLaAg2,0.0
mp-862842,LiPm2Pt,0.0
mp-862850,KPAuSe3,1.1129
mp-862913,PmHgRh2,0.0
mp-863726,Pm2PdRh,0.0
mp-864614,LiMg2Pt,0.0
mp-864615,TbCdRh2,0.0
mp-864675,Yb3N2,0.4892
mp-864835,Hf2CoIr,0.0
mp-864908,MgTiIr2,0.042600000000000006
mp-865022,MnIr3,0.0
mp-865082,NaCaAu2,0.0
mp-865226,LuMgHg2,0.0
mp-865229,Be2NiIr,0.0
mp-865486,VZnRu2,0.0
mp-865494,V2CrRu,0.0
mp-865553,CaEuIn2,0.0
mp-865561,Y2AgRu,0.0
mp-865592,Y2ZnRu,0.0
mp-865597,NdPbAu2,0.0
mp-865665,TiReTc2,0.0
mp-865911,YbPmHg2,0.0
mp-865965,Li2CaSi,0.0
mp-866016,AcBiAu2,0.0
mp-866150,LiSm2Os,0.0
mp-866221,HfSnRh2,0.0
mp-866225,AcMgHg2,0.0
mp-867238,SmPb3,0.0
mp-867285,LiTb2Ir,0.0
mp-867311,AcAgTe2,0.1809
mp-867914,LaMgAg2,0.0
mp-9082,CsSmS2,2.2409
mp-9523,Rb(ThSe3)2,0.0
mp-972455,TmLuIn2,0.0
mp-973441,La(ErS2)3,1.060299999999999
mp-9746,Ba3NaIrO6,0.0
mp-977455,PaAgO3,1.521599999999999
mp-978853,Sr(GeIr)2,0.0
mp-979288,Ta2NbRh,0.0
mp-980949,WCl4,0.27540000000000003
mp-981512,YbLuPt2,0.0
mp-982,TmPd3,0.0
mp-982615,Pm2InAg,0.0
mp-983590,Be3Fe,0.0
mp-9867,Ba2Si3Ag,0.061700000000000005
mp-989642,Cs2NaAlH6,2.1846
mp-9972,YSi,0.0
mp-997617,BOs,0.0
mvc-10340,CaHo(MoO3)2,1.333899999999999
mvc-6731,MgCuP2O7,0.21069999999999903
mp-1008394,Cl2,2.2818
mp-1018893,PrCuSn,0.0
mp-10200,ZrBeSi,0.0
mp-1020013,Li2S2O7,5.536
mp-1020056,LiCa3Si2N5,2.4385
mp-10208,NiMoP2,0.0
mp-1024947,YbBi2,0.0
mp-1025193,HfGa5Co,0.0
mp-1025212,InAsPt5,0.0
mp-1029407,NaCrN2,0.0
mp-1038,MgCu2,0.0
mp-10608,Y3SnC,0.0
mp-1066136,YPd,0.0
mp-1067935,Ho2SbO2,0.0
mp-1068244,Er2AlNi2,0.0
mp-1068773,LuAu4,0.0
mp-1070662,Gd2BiO2,0.0
mp-1077797,LaGePt,0.0
mp-1077980,Sr(Ag2Sb)2,0.0
mp-1078524,ErZnNi,0.0
mp-1078690,YbCdGe,0.0
mp-1078699,NbPt3,0.0
mp-1079037,LaSi2Ni,0.0
mp-1079568,NaIrO3,0.0
mp-1079855,LiPd7,0.0
mp-1079893,BaTiSe3,0.0
mp-1079944,LuCuAs2,0.0
mp-1080559,In(GaAu)2,0.0
mp-1080710,Ho2InAu2,0.0
mp-1080829,Ti6Ge2B,0.0
mp-1087540,CdCu2SiTe4,0.532
mp-1095333,EuIn4Ir,0.0
mp-1097014,KSnBr3,2.2706
mp-1100768,TbCdHg2,0.0
mp-1101457,Ni(BiO3)2,0.16690000000000002
mp-1101753,ZrPRh,0.0
mp-1101813,CaGaSn,0.0
mp-1102068,DyAsPd,0.05620000000000001
mp-1102464,SmGaPt,0.0
mp-1102541,YSi2Rh3,0.0
mp-1102849,BaErAgSe3,1.3771
mp-11029,Y(Al2Cu)4,0.0
mp-1102902,Pr2Ni5B4,0.0
mp-1103272,ZrSiNi,0.0
mp-1105564,Ni8Bi8SI,0.0
mp-1105597,LuSiPt2,0.0
mp-1105609,Tb3Rh,0.0
mp-1105949,Eu5Sb3,0.0
mp-1106047,Mg2CoB2Ir5,0.0
mp-1106100,LiEuGe2,0.0
mp-11113,TiTeAs,0.0
mp-1112137,Cs2NaYI6,3.1561
mp-1113761,Rb2InAgCl6,1.3232
mp-1114701,Rb2LiRuF6,0.0
mp-11212,LaAsPd,0.0
mp-11230,Y2Al,0.0
mp-11475,TmHg,0.0
mp-11486,Y2(Al3Co)3,0.0
mp-11541,ZrOs,0.0
mp-11675,NbTe2,0.0
mp-1173356,PrPaO4,2.762699999999999
mp-1178173,Ho2TeO2,1.0335
mp-1183488,CaAcMg2,0.0
mp-1183688,CrGaRu2,0.0
mp-1184333,Gd2MgAl,0.0
mp-1184921,In3Pb,0.0
mp-1186657,PmTmZn2,0.0
mp-1186729,Pr2MgIn,0.0
mp-1187,ThIr2,0.0
mp-1187242,TaNbRe2,0.0
mp-1187977,Zr2FeOs,0.0
mp-1188052,ZrGaCo2,0.0
mp-1188082,YMg149,0.2723
mp-1188586,Pr2Ge5Ru3,0.0
mp-1189436,Pr2Zn5Sn,0.0
mp-1189727,La(CoB)4,0.0
mp-1190421,CsDy2Ag3Te5,1.0728
mp-1190710,Sc5(In2Co)2,0.0
mp-1190750,ErH3,0.016
mp-1191665,Tb4Ga16Co3,0.0
mp-1191710,LuFeB4,0.0
mp-1192110,Tm3(SiNi3)2,0.0
mp-1192144,NdBN2,2.3825
mp-1192350,NbFe2,0.0
mp-1192528,LiCa3As2H,1.441699999999999
mp-1192556,RbInTe3O8,3.063599999999999
mp-1192602,Nd3Sn5Au6,0.0
mp-1193056,Cs2Mo3O10,3.428899999999999
mp-1193128,Te2Pb3(BrO3)2,2.5348
mp-1193140,Cs2S5,1.8864
mp-1193412,KSnPS4,2.149899999999999
mp-1193800,Hf9Re4Se,0.0
mp-1194579,Dy2SeOF2,2.8568000000000002
mp-1194667,Ca21(Zn2Sb9)2,0.6512
mp-1194926,Cs3Gd(PO4)2,3.1528
mp-1195744,BaEr2Si3O10,4.8347999999999995
mp-1195759,Ag2P2H2O7,2.1433
mp-1196464,CsFeAgF6,0.0
mp-1197957,Na3Al(AsO4)2,3.3779
mp-1198275,PrV2IO9,2.582799999999999
mp-1199855,ZnSb2Cl2O3,3.7206
mp-1200385,Eu3Sb4Se9,0.0
mp-1201241,Dy7C2I12O,0.027099999999999003
mp-1201972,ZrCrGe2,0.0051
mp-1203081,Cs2Te4O9,2.7124
mp-1203087,Ga4Hg11(PCl4)4,1.7383000000000002
mp-1204289,Cs4BiAs3Se7,1.4702
mp-1205363,Ba2NdGaSe5,1.7009999999999992
mp-1205512,KBa2IO6,2.779
mp-1205691,Ba2ZnOsO6,0.0
mp-1206127,CeRu3C,0.0
mp-1206394,Eu(MgAs)2,0.0
mp-1206804,Tm3(In2Co)2,0.0
mp-1207078,CaNiH3,0.0
mp-1207634,YFeB4,0.0
mp-1207673,Yb2Sn5Pd3,0.0
mp-1207674,TmPPd,0.0
mp-1207777,Y3Pd,0.0
mp-1207859,Y(Al5Re)2,0.0
mp-1208372,Tb9Mg5Ni4,0.0
mp-1208386,Tb(Al5Re)2,0.0
mp-1208415,Tb5(SiSb)2,0.0
mp-1208669,Ta3Te4ClO15,2.5158
mp-1208899,Sm2(Al3Ir)3,0.0
mp-1208970,Sm3(P3Pd10)2,0.0
mp-1209089,Sc2(Al3Co)3,0.0
mp-1209457,Sb3Cl11F4,1.720899999999999
mp-1209465,Rb2Mo(OF2)2,3.471
mp-1209628,RbGaSnSe4,1.3776000000000002
mp-1209696,Sm12Co6Pb,0.0013000000000000002
mp-1210030,Nd4MgRh,0.0
mp-1210802,Tb3Ga15Ru4,0.0
mp-1211036,Lu2B6Rh,0.0
mp-1211312,La2(Al3Rh)3,0.0
mp-1211525,KZr6BI14,0.7154
mp-1211560,KRbGeO3,3.0027
mp-1211743,KAlSe2,2.4172000000000002
mp-1211860,K2NdF5,6.6774000000000004
mp-1212066,HoNiAs,0.0
mp-1212457,Li3Gd3(TeO6)2,2.8187
mp-1212617,GdTl(MoO4)2,3.1567
mp-1212657,Gd2Cu(GeO4)2,0.676299999999999
mp-1212841,Dy3SbO7,2.793199999999999
mp-1213075,CuPdF6,0.0
mp-1213346,CsTm(MoO4)2,3.584699999999999
mp-1213424,Er6Ta4Al43,0.0
mp-1213486,Fe2H2Se3O10,2.5006
mp-1213734,Cs3Nb6SBr17,0.5779999999999991
mp-1213881,Ce3HfSb5,0.0
mp-1213885,Ce2(Al3Ir)3,0.0159
mp-1214389,BaPb3O4,2.0005
mp-1214566,Ba3CoO5,0.694099999999999
mp-1214755,BPd6,0.0
mp-1215465,Zr2SiTe2As,0.0
mp-1216418,V8GaGeS16,0.0
mp-1216445,V9Cr3B8,0.0
mp-1216665,Tm3Ga2Ge3,0.0
mp-1216707,TiNbC2,0.0
mp-12170,La2SnS5,0.221199999999999
mp-1217050,U2(InSn)3,0.0
mp-1217299,Th2MnSi3,0.0
mp-1218069,SrPr(FeO3)2,0.0
mp-1218112,Ta6V3Ni3C2,0.0
mp-1219401,Sm2UTe5,0.0
mp-1220265,Nd4CdSi3O13,3.4302
mp-1220520,Nd4Rh,0.0
mp-1221619,MnFeSi2,0.0
mp-1223214,La2NiRhO6,0.0
mp-1223276,La(CeB8)3,0.0
mp-1223428,LaCeNi10,0.0
mp-1224399,Hf4C3N,0.0
mp-1224860,GaNi6Ge,0.0
mp-1225841,CsUSbO6,1.6418
mp-1226182,Cs2Al(TeO4)3,0.0
mp-1226566,CeOsRu,0.0
mp-1227436,Ca2Ga7Au,0.0
mp-1228679,Ba(B2Pt3)2,0.0
mp-1229208,Cs2Bi4Se7,0.785
mp-1229248,Ca65Ga24Sn19,0.1482
mp-1232408,Cs3In3(PO4)4,3.1097
mp-1234,LuAl2,0.0
mp-12496,CsTmCdTe3,1.548
mp-12553,PrAl3,0.0
mp-12755,ThRh,0.0
mp-12759,Zn2CuAu,0.0
mp-12774,ThIr,0.0
mp-13285,NaPd3O4,0.0
mp-13401,Yb(CuGe)2,0.0
mp-13811,Ba2MgUO6,2.0589
mp-1404,CdAu,0.0
mp-14214,Ba4SiP4,1.0893
mp-14298,Zr6Ni20P13,0.0
mp-14613,Pr10Se19,0.31019999999999903
mp-14718,Na2MnCrF7,2.4625
mp-15293,TmTiGe,0.0
mp-15819,Mn3Al9Si,0.0
mp-1604,Pt3O4,0.0
mp-16096,Tl(TeMo)3,0.21229999999999902
mp-16118,RbDy2CuSe4,1.049
mp-16304,YPPt,0.0
mp-16305,ScPRu,0.0
mp-1654,CeNi2,0.0
mp-16984,Sr3MgRhO6,0.0
mp-17021,TlCrP2O7,2.7923
mp-17042,Sc2P7Ru12,0.0
mp-17448,Ba3CaIr2O9,0.0
mp-17470,Ba3(SnAs2)2,0.757
mp-18229,CaTa2O6,3.482299999999999
mp-18347,KAlTe2,1.893999999999999
mp-18529,Tm2S3,2.2738
mp-18532,HoPS4,2.157499999999999
mp-19165,BaFe(Si2O5)2,3.6492
mp-19291,NaVPO5,1.3885
mp-19300,La2MoO6,2.8207999999999993
mp-19754,TmCoC,0.0
mp-19839,LaGa2,0.0
mp-20024,LaCuSn,0.0
mp-20028,FeBPbO4,2.087
mp-20308,TmSiRu,0.0
mp-20314,NpSnIr,0.0
mp-20365,NpGe3,0.0
mp-20383,TbSiIr,0.0
mp-2049,ZrMo2,0.0
mp-20620,Ba2NbInO6,3.3585000000000003
mp-20725,PbO2,0.013199999999999
mp-20804,Rb(InAu2)2,0.0
mp-209,Er2Se3,1.3585999999999991
mp-21122,NdSb2Pd,0.0
mp-21213,NaCr(GeO3)2,2.8201
mp-2130,LuNi2,0.0
mp-2137,Mg2Ni,0.0
mp-21450,Nd2InPd2,0.0
mp-21556,Ce3(InRu)2,0.0
mp-21589,Ga9Ni13,0.0
mp-2165,SmZn,0.0
mp-21908,Co(SbO3)2,0.0
mp-21971,Ca3Fe2(GeO4)3,2.3844
mp-22149,DyGeAu,0.0
mp-22164,PrNiSn,0.0
mp-22486,Tb(MnGe)2,0.0
mp-22662,TiGaPt,0.0
mp-22696,NdInCu,0.0
mp-2271,NaPt2,0.0
mp-22743,BaYbCo4O7,0.0
mp-22826,KNb8O14,0.0
mp-22952,CeClO,0.0
mp-23221,PrBr3,3.429599999999999
mp-23581,Cr3B7BrO13,0.5011
mp-2390,YbP,0.0
mp-24072,AgH5S2O9,3.5225
mp-2592,Si2Mo,0.0
mp-2613,LaCu5,0.0
mp-27140,K2Sb4O11,1.858699999999999
mp-27198,Cd(NO3)2,3.4723
mp-27283,TlPb2Cl5,3.4393000000000002
mp-27617,Ce2SeF4,0.0
mp-27913,CoHO2,2.148299999999999
mp-28133,Gd3CCl3,0.0
mp-28424,K4P3,0.0
mp-28696,K3FeO4,0.8904000000000001
mp-28710,BaGe2S5,2.1848
mp-29213,Cd2Ge7O16,2.101
mp-29226,Ca3Ga4O9,2.6441
mp-29282,P2PtO7,1.509199999999999
mp-2933,Pr2(ReB2)3,0.0
mp-29363,Rb3GaP2,0.8513000000000001
mp-29372,Cs2GaSb2,1.0868
mp-29383,KGaSb2,0.9487000000000001
mp-29485,Y4BBr6,0.0
mp-29565,PrSiPd,0.0
mp-29646,HfAs2,0.0
mp-2969,CsSbSe2,1.1571999999999991
mp-29782,Bi2W2O9,2.0546
mp-29846,Tb10B2Br15,0.0
mp-30328,Ho6FeBi2,0.0
mp-30454,ErBiPt,0.0
mp-30568,Zn13Co,0.0
mp-30681,YGa6,0.0
mp-30709,La2Zn17,0.0
mp-30834,SrSn3Pd,0.0
mp-30883,V4Zn5,0.0
mp-31180,DyAl4Ni,0.0
mp-31187,TiAlFe2,0.0
mp-31194,Li13(Ga7Cu2)3,0.0
mp-3158,Li2SbPt,0.0
mp-3334,Tm2Sn2O7,2.8769
mp-3346,HoZrSb,0.0
mp-3557,Eu(CuGe)2,0.0
mp-3566,Ce(SiRu)2,0.0
mp-3602,YAl4Ni,0.0
mp-3686,YbBRh3,0.0
mp-3882,Sm(SiRh)2,0.0
mp-3954,PrPS4,2.2849
mp-4206,UAs2Pd,0.0
mp-4251,Pr(Sb3Os)4,0.0
mp-4744,Ca(NiAs)2,0.0
mp-4889,Y(GeRh)2,0.0
mp-4924,Pr(CuGe)2,0.0
mp-4990,MnSnRh2,0.0
mp-504662,SbClO,3.104899999999999
mp-505011,YCo5P3,0.0
mp-505121,Na2Hg3S4,1.3273000000000001
mp-505228,Sr5Nb5O17,0.0
mp-505365,Mg3Nb6O11,0.24710000000000001
mp-510002,K2Sn(HO)6,3.6845
mp-510126,Ce3Ni2Sn7,0.0
mp-510522,Zr5Sn3,0.0
mp-510589,MnCuO2,0.16540000000000002
mp-510687,DyAgPb,0.0
mp-540582,CaCr2O4,0.0
mp-540707,Cs2Sn(GeO3)3,2.6097
mp-540879,Eu(BO2)2,0.2904
mp-540905,YAlGeO5,3.821099999999999
mp-542484,Sr5Cd3,0.0
mp-542512,NaPr2RuO6,0.4899
mp-542802,YCuPbS3,1.624299999999999
mp-5456,Sr2CuO3,0.0
mp-553959,Na6Nb8(PO7)5,0.038199999999999006
mp-554001,Nd3S3N,1.1935
mp-554223,RbScAs2O7,3.5749
mp-554810,Ba2VP2O9,2.5956
mp-555073,La3As2ClO7,3.1501
mp-555421,Na3TmSi2O7,3.9610000000000003
mp-555758,Eu3Fe5O12,0.056600000000000004
mp-556374,K2U3(IO5)4,1.9159000000000002
mp-556523,LaPb6ClO7,2.1420999999999992
mp-556536,Na2Zr(CuS2)2,0.0068000000000000005
mp-556781,Y3CuGeS7,1.8533
mp-556809,Sr11(OsO6)4,0.0
mp-556896,Ba4AgAuO6,1.9873
mp-557135,VAgSeO5,0.9552
mp-557217,Cr2PIO4,0.0
mp-557698,K4Na2TeO6,2.1936
mp-557784,LaNbTeO6,3.3104
mp-557947,KV2PO8,2.239
mp-558619,Li2Ti6PbO14,2.632399999999999
mp-559447,Gd3Se4O12F,2.7817
mp-560170,Nd5Te2Cl3O10,3.386
mp-560544,Ba3Zn5In2O11,1.6195
mp-560793,Li2U(MoO5)2,2.4047
mp-560898,NaPr(SeO4)2,3.3742
mp-5610,Ca(AsRu)2,0.0
mp-561554,K2MoAs2O9,2.7768
mp-562434,Cs3Ta5O14,3.7919
mp-562456,Fe3(PO4)2,3.3577
mp-562537,Ta2Ni3S8,0.7452999999999991
mp-567077,SmB2Rh2C,0.0
mp-567604,GeBr4,3.0755
mp-567859,Sm(FeSi)2,0.0
mp-567909,Pr(NiSn)2,0.0
mp-568173,LaMgSi2,0.0
mp-569147,UP2,0.0
mp-569270,V3B4,0.0
mp-569313,Mg3Si8Ir3,0.0
mp-569413,K2Sr(NbCl3)6,1.0848
mp-569538,LaNiSb3,0.0
mp-570018,Ce3Pb,0.0
mp-570093,DyZn2,0.0
mp-570184,ThPd3,0.0
mp-5702,Cu3SbS4,0.0
mp-570315,PBr2N,2.9781
mp-570340,AgAuCl4,0.885799999999999
mp-570457,Mg6Si7Ni16,0.0
mp-570788,Yb3Ni7B2,0.0
mp-571109,Li2Nd2Si3,0.0
mp-571397,Cs3Tb10C4Cl21,0.6789000000000001
mp-571432,La5C2I9,1.5029
mp-581887,Ca2As4Xe5F34,2.8342
mp-5819,Pr(NiGe)2,0.0
mp-582023,La21Fe8Sb7C12,0.0
mp-583615,K3In2As3,0.5947
mp-601286,TbCuPbSe3,1.3083
mp-609413,Eu2Ga3Ir,0.0
mp-621624,Tl7Sb2,0.0
mp-6231,Ba2ErSbO6,3.3844
mp-6238,Ba2Ta6Te2O21,2.8945
mp-624299,Cu7S4,0.0
mp-628735,KEuPS4,0.0
mp-631961,La5In3Br,0.0
mp-637030,Gd2Al6Si4Pt,0.0
mp-638586,Te3Pd13,0.0
mp-639160,Gd2InGe2,0.0
mp-639805,Ta3Ge,0.0
mp-640159,V2GaSn2,0.0
mp-640950,NaB9Se8,1.9459
mp-647363,La21Fe8Bi7C12,0.0
mp-653891,NbTe2(SeI3)2,0.9449999999999991
mp-669402,Lu2Si5Ru3,0.0
mp-672679,Y4InIr,0.0
mp-675626,Cu3AsSe4,0.0
mp-675693,Na2CdO2,0.7806000000000001
mp-676937,Ta8Pb6O25,0.3305
mp-680302,Ca31Sn20,0.035699999999999
mp-6820,Cu2Hg2SF6,0.0
mp-685257,CdPbO3,0.0011
mp-686016,KSn2F5,2.9857
mp-687088,Co2TeBr2O3,2.3675
mp-6926,Ca(PPd)2,0.0
mp-695042,Sr9LaTi10O30,0.0
mp-696272,HgHNO4,1.5685
mp-705522,Sr28In11,0.0
mp-708,LaAs,0.041399999999999
mp-7378,NaCdAs,0.007
mp-756148,Sm2Pt2O7,1.2066
mp-7577,CoSi,0.0
mp-757878,Na5Cu(HO2)2,1.49
mp-759835,CeMgAu,0.0
mp-760098,Y5U2O12,0.0796
mp-765350,LaHSe3O10,1.577799999999999
mp-768605,Ho2TiO5,3.3153
mp-771876,Li5NiO4,1.8688
mp-7959,KErO2,3.9633000000000003
mp-8307,CaNi4B,0.0
mp-861510,Pr2SnHg,0.0
mp-861874,LiHoHg2,0.0
mp-861883,Ac2CuIr,0.0
mp-861954,LiTaRu2,0.0
mp-862258,Sc2ZnPt,0.0
mp-862259,Sc3Al,0.0
mp-862362,Sc2TcPt,0.0
mp-862486,Sc2AlOs,0.0
mp-862728,Pm2ZnRu,0.0
mp-862794,K2Pu2O5,0.0
mp-862802,CsNpCuS3,0.0
mp-862857,PaS3,0.0
mp-862895,Er2ZnRu,0.0
mp-862906,PmGaCu2,0.0
mp-863435,Co3(AsO4)2,1.6707
mp-863704,Pm2MgTl,0.0
mp-864610,Nd2MgAl,0.0
mp-864661,ZnCuPd2,0.0
mp-864795,Ac2SnHg,0.0
mp-864895,Be2NiRh,0.0
mp-864903,MgTaRu2,0.0
mp-864962,CaAcZn2,0.0
mp-865041,HfScRh2,0.0
mp-865603,Y2IrRh,0.0
mp-865859,LaYbCd2,0.0
mp-865987,Li2AgPd,0.0
mp-866003,ErI3,2.046
mp-866004,Er2InAg,0.0
mp-866691,La2PC,0.0
mp-866809,YbB2C,0.0
mp-867277,Ho2MgAl,0.0
mp-867296,RePO5,0.0
mp-867673,Na3(Pt3O4)4,0.0
mp-867828,BeNbRu2,0.0
mp-867835,BeSiRu2,0.0
mp-9324,Ba3MnN3,0.0
mp-9389,HoCuGe,0.0
mp-952,MoPt2,0.0
mp-9619,Th(FeP3)4,0.9438999999999991
mp-975655,PrNiGe2,0.0
mp-976286,HoErRh2,0.0
mp-977562,NdCdAu2,0.0
mp-977575,MgSbRu2,0.0
mp-978678,Sm(BOs)2,0.0
mp-978986,Sr(GePd)2,0.0
mp-978990,Tl2(IO3)3,1.9691
mp-979046,Tm2Co12P7,0.0
mp-980648,TmThRu2,0.0
mp-985,TmCu,0.0
mp-989566,Rb2InGaF6,3.3559
mp-989585,Cs2KPbF6,0.0030999999999990003
mp-989647,YReN3,0.0
mp-9952,Hf5ZnSb3,0.0
mp-999143,SrPd,0.0
mvc-10438,BaBiF7,0.366
mvc-15834,CaNiF6,2.1535
mvc-9656,CaPr(MoO3)2,1.1943000000000001
mp-10057,VCoB3,0.0
mp-1008505,BaPd,0.0
mp-1018647,YbNiH3,0.0
mp-1018729,HoZnIn,0.0
mp-1025023,TbCBr,0.0
mp-1025098,ThSiPt,0.0
mp-1025356,ZnAsPt5,0.0
mp-1025438,LuPt,0.0
mp-1025524,Zr2TlC,0.0
mp-1033,BeNi,0.0
mp-10495,NdCuS2,1.393599999999999
mp-1069558,Ce2SeN2,0.9466999999999991
mp-1070124,LaSi3Rh,0.0
mp-1071127,Ca2GePd3,0.0
mp-1077750,YbCu4Pd,0.0
mp-1078526,GaPd,0.0
mp-1078533,Th(AlAu)2,0.0
mp-1078630,Ba2ThCu2S5,0.9541000000000001
mp-1078911,TmSnPd,0.0
mp-1079541,ZnCu2SnS4,0.09439999999999901
mp-1079546,Nb2GaC,0.0
mp-1079644,Tm2CdGe2,0.0
mp-1079667,Tm2CoGe2,0.0
mp-1079894,LaGe2Rh,0.0
mp-1080384,DyInCu4,0.0
mp-1087485,YInPd,0.0
mp-1095186,K(NpSe3)2,0.0
mp-1095255,Ba3ThSe7,0.9504999999999991
mp-1095442,HfVP,0.0
mp-1096838,Ba(AgO)2,1.727399999999999
mp-1100766,Ni3Pt,0.0
mp-1101099,Ti2S3,0.0
mp-1102030,YTc2,0.0
mp-1103125,Dy5S7,0.0
mp-1103415,Sm3(CuGe)4,0.0
mp-1103869,KCr5Te8,0.0
mp-1103896,Gd3BiO3,0.0
mp-1104159,Sm5Ru2,0.0
mp-1104495,La3Rh2,0.0
mp-1105019,DyGa3Ru,0.0
mp-1105202,Ba2InBiSe5,1.1294
mp-1105400,Nd3Bi4Au3,0.4314
mp-1105499,Lu5(TeAu)2,0.0
mp-1105812,Dy2Ge5Ru3,0.0
mp-1105940,Ba(InP)2,0.32370000000000004
mp-1111261,K2LiBiCl6,3.613
mp-1111916,K2NaTiF6,0.0
mp-11174,K2IrF6,0.0
mp-11181,Cs(MnP)2,0.0
mp-1120731,NaVF6,3.2462
mp-11430,Ca3Al7Ag2,0.0
mp-11456,HfPt3,0.0
mp-1183199,AcTlRh2,0.0
mp-1183554,CaHoHg2,0.0
mp-1184371,Gd2AgIr,0.0
mp-1185129,LaPmZn2,0.0
mp-1185500,LuMgAg2,0.0
mp-1187212,Ta2ReTc,0.0
mp-1187511,TiRe2Mo,0.0
mp-1188292,Y5Pb3,0.0
mp-1188364,Tl2Hg3S4,1.827799999999999
mp-1188393,Ga3Re,0.0
mp-1188954,Ba3Ge5,0.0
mp-1188988,Mg2TiB2Ir5,0.0
mp-1189719,Er3Tl2Cu5S8,1.2917
mp-1189987,Dy4Ga12Fe,0.0
mp-1190199,CuSb6(SO8)2,0.46980000000000005
mp-1190530,Ba3(Ge4Ir)4,0.0
mp-1190918,Sm2Ni12P7,0.0
mp-1191038,LaIn2Ni9,0.0
mp-1191335,Cs2U(PtS2)3,0.0
mp-1191848,Tm3(AlNi3)2,0.0
mp-1192413,CsInTe3O8,3.0959
mp-1193359,Hf9GeMo4,0.0
mp-1193905,Nb4Co2N,0.0
mp-1194036,Hf6Zn16Cu7,0.0
mp-1194197,La3SiN4F,1.979000000000001
mp-1195016,BaTe4O9,3.1791
mp-1195424,Ba5(In2Sb3)2,0.45080000000000003
mp-1195494,NpH4ClO4,0.34700000000000003
mp-1196620,SrLa2WO7,3.3748
mp-1197158,Cs3Nb2Se11,0.883599999999999
mp-1197660,HfMnGe2,0.0
mp-1198609,EuV(SeO4)2,0.0
mp-1198642,Y7Co6Sn23,0.0
mp-11987,SmMgTl,0.0
mp-1198737,CsTc3(Se2Br)2,1.0502
mp-1200211,Ca3Sn13Ir4,0.0
mp-1200584,La3Zn22,0.0
mp-1200695,UP2O7,0.09290000000000001
mp-1200756,Pr(BRu)4,0.0
mp-1201161,Pr4AsBrO8,3.911
mp-1201406,Cs2Nb3Cl7O5,2.3133
mp-1202141,Tm3Ga2,0.0
mp-1203015,TaBr5,2.0349
mp-1203296,AlH12(NO5)3,3.5634
mp-1203552,Tm2(Ni5B3)3,0.0
mp-1203883,LaInCu5,0.0
mp-1204253,Cu4Se3O10,0.16670000000000001
mp-1204376,La(Cd10Ni)2,0.0
mp-1204726,Ba3GaS4Br,3.0298
mp-12049,Nd2Sb,0.0
mp-1204963,Pr(Al10V)2,0.0
mp-1205344,PrSbO4,3.017
mp-1205499,Pr2ScSi2,0.0
mp-1205618,TmRe2SiC,0.0
mp-1205650,Ba2TaTlO6,2.4628
mp-1206028,UPdPt4,0.0
mp-1206088,YSi2Ni,0.0
mp-1206452,Gd2GeBr2,0.0
mp-1206555,Dy2CdCu2,0.0
mp-1206889,YCCl,0.0
mp-1207432,Zr6Zn23Ge,0.258
mp-1207719,Yb6Ta4Al43,0.0
mp-1207757,Y3Tl5,0.0
mp-1207770,Y5BiPt2,0.0
mp-1207790,Y12Al7Si,0.0
mp-1207816,Tm3(Al3Os)4,0.0
mp-1207953,Tm5(GeSb)2,0.0