material_id,pretty_formula,band_gap
mp-1078721,InPd3,0.0
mp-1079283,LaAlH6,2.8057
mp-1079435,ErMgPd,0.0
mp-1079745,ErGa2Pd,0.0
mp-1080021,Nb2B3,0.0
mp-1080083,PrPOsO,0.0
mp-1080388,PuPt5,0.0
mp-1080463,HfPOs,0.0
mp-1080485,NdPt,0.0
mp-1080654,LaPdPb,0.0
mp-1083,NpB2,0.0
mp-1095625,TmAsPd,0.030499999999999004
mp-1098000,LiEu3O4,0.0
mp-10991,YCuAs2,0.0
mp-10999,LuGeIr,0.0
mp-1102481,EuGa3Ni2,0.0
mp-1102487,Sc(P2Ru3)2,0.0
mp-1102705,SrGaGe,0.0
mp-1103046,CaCdPt,0.0
mp-1103146,TmBPt2,0.0
mp-1104070,PrGa6,0.0
mp-1104399,Dy3Pd4,0.0
mp-1104660,Bi(PdO2)2,0.0
mp-1104798,Th(Al2Cu)4,0.0
mp-1105540,CeSiIr2,0.0
mp-1105715,TiGeS3,0.35540000000000005
mp-1105851,Hf5CuSb3,0.0
mp-1105945,Sm3Ni,0.0
mp-1106288,Zr5Sb3Se,0.0
mp-1112141,Cs2NaScI6,2.2218
mp-1112678,Cs2LiNdCl6,4.8256
mp-11313,ZrCd3,0.0
mp-11462,KHg,0.0
mp-11465,Mg5Hg3,0.0
mp-11508,MoP4,0.0
mp-11700,BaCuSb,0.0
mp-1179677,Re2Cl5O4,0.7633000000000001
mp-1183106,Ac2ZnIn,0.0
mp-1183196,AcYbAg2,0.0
mp-1183474,CaAcAu2,0.0
mp-1183566,CaTbHg2,0.0
mp-1183609,CaEuTl2,0.0
mp-1183691,CrN,0.0
mp-1184131,Er2AgOs,0.0
mp-1184231,AcMg149,0.21680000000000002
mp-1184527,GdDyTl2,0.0
mp-1185591,Mg149Ag,0.5665
mp-1185596,Mg149Al,0.5011
mp-1186209,Nb2TcRu,0.0
mp-1186314,NdHg3,0.0
mp-1186749,PrHoIn2,0.0
mp-1188640,Zr5Sn3As,0.0
mp-1189005,Tb6NiBr10,0.4565
mp-1189333,ErB2Os,0.0
mp-1189354,Nd(Sb3Ru)4,0.0
mp-1189385,Nb3B2Ru5,0.0
mp-1189470,NbReSi,0.0
mp-1189515,LuAl3Ni2,0.0
mp-1189833,YbSiPd2,0.0
mp-1190455,CsGd2Ag3Te5,0.6281000000000001
mp-1190952,TbPS,0.5084999999999991
mp-1191288,Eu2Ta2O7,0.0
mp-1191493,Li8Sm7Ge10,0.0
mp-1191675,BaNp(PO4)2,0.0
mp-1192153,LiDy(WO4)2,3.8193
mp-1192446,Pb2SeN2O9,3.263199999999999
mp-1192526,CsBaPS4,2.714
mp-1192552,KAsO3,3.148799999999999
mp-1192616,La6Mg23P,0.0
mp-1193194,Cs3GeSe3,1.9013
mp-1193255,Ga2(Ni7B2)3,0.0
mp-1193594,Mn2P12W,0.025999999999999003
mp-1193797,Ba(DySe2)2,1.388799999999999
mp-1193899,Ta4Fe4Si7,0.0
mp-1194109,EuBe13,0.0
mp-1194388,VAgOF4,1.9682
mp-1194527,YTl2P2S7,2.1307
mp-1194909,AlSb2(SeCl2)2,1.1274
mp-1195304,Cs2Sn3(SbS5)2,1.8108
mp-1195546,Tl5Ag3(PS3)4,1.6724
mp-1195908,Na3U6VF30,0.0
mp-1198507,PrSn3Ru,0.0
mp-1198966,SiAg2(S2O7)3,3.529599999999999
mp-1199125,In2Se2O7,2.8578
mp-1199459,Yb2(SO4)3,0.0
mp-1200226,Dy5Ir3,0.0
mp-1201318,Pb3(NO4)2,2.127899999999999
mp-1201395,Tb4Te3N2,1.4853
mp-1201457,Sm3Zn22,0.0
mp-1202045,Lu2(TeO3)3,3.06
mp-1203009,CdTe(Pb3O5)2,2.0555
mp-1203027,Ga40AgMo8,0.0
mp-1203045,Co9Te5(PbO5)6,1.3596
mp-1205185,Rb3Sc2(AsO4)3,3.8122
mp-1205578,NdSiOs2C,0.0
mp-1205581,Ho2CdCu2,0.0
mp-1205607,TmSiOs2C,0.0
mp-1205750,YMgAu,0.0
mp-1206025,HoAlSi,0.0
mp-1206072,Zr6CoSn2,0.0
mp-12061,Lu(FeB)2,0.0
mp-1206280,Li3YSb2,0.0
mp-1206553,Rb2LiRuCl6,0.0
mp-1206717,LaBiPd,0.1237
mp-1206780,Ti2Sb,0.0
mp-1206860,NdMgIn,0.0
mp-1206861,Ba2ScReO6,0.0
mp-1207424,Zr2InAu2,0.0
mp-1207511,Zr6FeI14,1.0524
mp-1207714,Y2(Al3Pd)3,0.0
mp-1207736,Y2(Ga3Ir)3,0.0
mp-1207957,Y2Fe14C,0.0
mp-1207976,TmCoB4,0.0
mp-1208176,Zn61Pd8,0.0
mp-1208474,Tb3B7Mo,0.0
mp-1208503,Tb3Sb5O12,3.1532
mp-1208629,Sr5Sb2As,0.0
mp-1208762,Sr2MnTeO6,1.486499999999999
mp-1208829,Sr3Sc2(GeO4)3,3.2754
mp-1209045,UP3O11,0.0
mp-1209363,Rb2UTe3,0.05109999999999901
mp-1209406,RbHo2Cl7,4.547099999999999
mp-1209635,Pr5Sn3Au,0.0
mp-1210087,NaEr(Pd3O4)2,0.062399999999999005
mp-1210188,Nd2Ti3(BiO6)2,1.323
mp-1210379,Sc50In3Rh13,0.0
mp-1210509,Pr12Co6Pb,0.0
mp-1210815,Lu3Co2Si3,0.0
mp-1210866,LiVCdF6,2.6004
mp-1212162,Ho(Al5Fe)2,0.0
mp-1212249,Hf3AgHg3F20,0.7565000000000001
mp-1212454,La3Lu2(GaO4)3,3.285099999999999
mp-1212688,EuSi2Pt,0.0
mp-1213006,Er2OsC2,0.0
mp-1213039,Dy(ZnP)3,0.2878
mp-1213291,Dy6InCo2,0.0
mp-1214472,BaAs2Xe5F22,2.629
mp-1214535,Ba3NdIr2O9,0.0
mp-1214877,AlNi2BO5,3.618299999999999
mp-1215637,YbGaCu4,0.0
mp-1215732,ZnCoTe3O8,2.932
mp-1216441,Zr14Cu51,0.0
mp-1216980,U4CuTe12,0.0
mp-1217103,Ti4C3N,0.0
mp-1217530,TbGaAu,0.0
mp-1217967,SrPPt,0.0
mp-1218794,Sr2Pr(FeO3)3,0.0
mp-1218889,Sr(SiPt)2,0.0
mp-1219263,Sm6Al3Fe11,0.0
mp-1221667,MnCd3Te4,0.48529999999999907
mp-1223,La4Sb3,0.0
mp-1223074,La4Cu3Sb8,0.0
mp-1223361,La6Si2NiS14,0.9205999999999991
mp-1224029,K3Ti8O17,0.0
mp-1224178,Ho(CuS)3,1.5069
mp-1224834,GaSiNi6,0.0
mp-1225181,DyYMn2O6,0.0
mp-1225313,Dy2NiSb4,0.0
mp-1225340,Eu2CuTe4,0.0
mp-1226004,CoNiPt2,0.0
mp-1226158,Cs2Zr(WO4)3,3.0012
mp-1226597,Er6Al41Cr6,0.0
mp-1226870,CeY(MgNi4)2,0.0
mp-1226880,Ce2Mn3Si4Pd,0.0
mp-1227227,CaCeN2,0.393499999999999
mp-1227426,BiTeRh,0.20570000000000002
mp-1228324,Ba3(NaSb2)2,0.700399999999999
mp-1237008,ErSbO4,2.271
mp-1246246,Ca5(CuN2)2,0.3018
mp-12636,PRu,0.0
mp-12673,Lu2SO2,3.0933
mp-12761,BeAu2,0.0
mp-12789,Yb(Al5Fe)2,0.0
mp-1279742,FeO,2.3029
mp-1280510,Li2Ni3TeO8,0.30149999999999905
mp-12815,Na2LiAu3,0.0
mp-12952,HfGaAu,0.0
mp-13413,ThCu5Sn,0.0
mp-13854,B3Ru2,0.0
mp-13909,K4Sn23,0.0
mp-1407,Rh3Se8,0.0
mp-14469,KHg(PO3)3,3.038999999999999
mp-1570154,CaCo(GeO3)2,1.2087
mp-1573,Sn2Pd,0.0
mp-15739,BaZn2(AsO4)2,2.9793000000000003
mp-1610,TbS,0.0
mp-16799,K3NdV2O8,3.6601
mp-17207,Tl4GeS4,1.964
mp-17236,Ba(Ni2B)6,0.0
mp-1725,CaZn2,0.0
mp-17491,Ba2LiGe3,0.08509999999999901
mp-1779,YbTe,1.527299999999999
mp-17856,Al7CoCu2,0.0
mp-17867,Mn2NbP12,0.0
mp-18182,CsNa3TiO4,3.4765
mp-18344,Ta2Tl4S11,1.523899999999999
mp-18350,V3P,0.0
mp-18445,Ba2MnS3,0.0
mp-18462,TbGa3Os,0.0
mp-1854,EuPd2,0.0
mp-18547,NaGdGeO4,3.3011
mp-18809,Li2VGeO5,0.0
mp-19158,Mn3WO6,1.866299999999999
mp-19496,KV2SbO8,2.7787
mp-19955,Co2CuGe2,0.0
mp-20033,SnIr,0.0
mp-2013,HoTl3,0.0
mp-20150,LiCa2Si3,0.0
mp-20192,HfMnSi,0.0
mp-20279,NbInSe2,0.0
mp-20357,Ce2InPt2,0.0
mp-20522,TmAgPb,0.0
mp-20723,Ca2PbAu2,0.0
mp-20729,LaIn3,0.0
mp-20761,LaCoGe,0.0
mp-2077,DyMg,0.0
mp-20813,Ba2MnReO6,0.36649999999999905
mp-20834,CeSnPt,0.0
mp-20887,VSn2,0.0
mp-20947,CaRuO3,0.0
mp-21104,Hf5Sn3,0.0
mp-21111,NdSnPt,0.0
mp-21166,SrCaPb,0.291199999999999
mp-21227,U3TiSb5,0.0
mp-21381,ThPb3,0.0
mp-21540,Li3TiF6,0.15779999999999902
mp-21723,SiPbO3,3.1566
mp-2179,TiRe,0.0
mp-21853,SmIn2Ir,0.0
mp-21867,NaFe(SiO3)2,1.9115000000000002
mp-22017,LaIn2Ir,0.0
mp-22438,Ce(SiPt)2,0.0
mp-2268,TbAg,0.0
mp-22860,LaI,0.0
mp-22921,TbBi,0.0
mp-23019,UNCl,0.0
mp-23089,SrTa2Bi2O9,2.613699999999999
mp-23539,KSn2Cl5,3.036299999999999
mp-23763,SnH8(NCl3)2,2.4884
mp-2384,LaP,0.0
mp-242,SrB6,0.035
mp-2470,DyS,0.0
mp-24724,TbH2,0.0
mp-24728,VH2,0.0
mp-2513,As2Pt,0.28500000000000003
mp-2622,Pa3As4,0.0
mp-2631,Ba4Al5,0.0
mp-2717,Zr2Ni7,0.0
mp-27333,Tl3CoCl5,0.612899999999999
mp-27335,NaAlSi,0.0
mp-2767,TiGa,0.0
mp-27750,AsXeF7,2.902
mp-27802,BaSn2S3,1.352099999999999
mp-27807,Mn2O2F9,0.6096
mp-27926,AsClF8,3.3985
mp-28147,Er4Ni13C4,0.0
mp-28217,Tl2PS3,2.2405
mp-28279,Gd2NCl3,0.0
mp-28541,Bi2P4O13,4.6236000000000015
mp-28759,Al7(TlS4)3,2.7777000000000003
mp-28776,K2UBr5,0.11670000000000001
mp-28940,Sr4Nb2O9,3.7277
mp-29279,CuClF10,0.0
mp-29380,K2Te2As,0.9645
mp-30061,Sn4BRh6,0.0
mp-30230,Rb4SnS4,2.4082
mp-30371,Cd5Au3,0.0
mp-30736,HoZn3,0.0
mp-31152,CaGaPt,0.0
mp-31216,BaCd11,0.0
mp-31247,Eu2Te4O11,0.0
mp-31442,Li2InRh,0.0
mp-3264,Th(NiGe)2,0.0
mp-3274,NiGePd,0.0
mp-32742,U16N25,0.0
mp-33137,TcO2,0.0
mp-33803,Nd2Mo2O7,0.0
mp-35730,BaUO3,0.0
mp-3601,BaUS3,0.0
mp-3701,Sc(Al2Fe)4,0.0
mp-38070,Rb(TeO3)2,0.0
mp-39,Tl,0.0
mp-391,HoAl2,0.0
mp-4054,YAl3Ni,0.0
mp-4212,Nb3Co4B7,0.0
mp-432,NbRu,0.0
mp-4577,Y3(AlNi3)2,0.0
mp-477,SmGa2,0.0
mp-481,ScPt3,0.0
mp-4955,AlVCo2,0.0
mp-504425,Nb3As,0.0
mp-504775,La6P17Pd6,0.0
mp-504810,Rb2Li14Pb3O14,1.9346
mp-504984,USiNi,0.0
mp-505173,NaZrCuTe3,0.004899999999999001
mp-505300,Cs2MnO4,0.648
mp-505334,Dy2Mn3Si5,0.0
mp-505397,K2PuCl6,0.35950000000000004
mp-505734,Cs2SiO3,3.4146
mp-510001,Ca2Ni7P4,0.0
mp-510240,Rb2Ag4S3,0.1922
mp-510662,CsUAgSe3,0.0
mp-5112,Pr(CoSi)2,0.0
mp-5165,Th(SiRu)2,0.0
mp-532491,EuZr3F15,3.9530000000000003
mp-540671,Ti7Cl16,0.0
mp-540805,Ba2GeS4,2.2977
mp-540995,Rb5Nb3OF18,3.9847
mp-541066,Mg2B4Ru5,0.0
mp-542139,Mn(PO3)2,2.3364000000000003
mp-542177,PuAl3,0.0
mp-542297,Eu2SO6,0.0
mp-542392,EuMn2O5,0.0
mp-542686,K4Na2(Si2O5)3,4.1789
mp-542850,Na2RuO4,0.0
mp-542986,Gd(FeSi)2,0.0
mp-553374,Cs4Sb2O5,2.5754
mp-554146,K14In4O13,1.834299999999999
mp-554935,Pr8Sb2S15,1.8916
mp-555288,SbS(BrF2)3,2.5783
mp-556023,Nd3S2Cl5,3.169199999999999
mp-556212,K4U5Te2O21,1.8042
mp-5563,Ag5GeO4,0.6885
mp-556674,Ba3LuIr2O9,0.0
mp-556735,Rb2Bi4O7,2.5426
mp-557121,K2Sn(AuS2)2,1.7045
mp-557237,K5In3(SiO3)7,3.4899
mp-557448,Ba2CaUO6,2.197899999999999
mp-557744,NaUBO5,2.1014
mp-558026,SbSe(IF2)3,1.4032
mp-558943,LiUAsO6,2.3061
mp-559178,TmMoClO4,2.8468
mp-559563,Rb2NaCoF6,2.9462
mp-559668,Cs2CdBi2S5,1.7334
mp-560005,TlRe3(S2Cl)2,1.8316000000000001
mp-561017,Cs8Tl8O,0.15379999999999902
mp-561076,La3GaS5O,1.197499999999999
mp-561126,Nd3Si2S8I,2.546599999999999
mp-561138,RbGd(PO3)4,3.464
mp-561166,Na2ZrGe2O7,3.6954000000000002
mp-562499,Yb3Ga5O12,0.0
mp-567351,Tb4MgIr,0.0
mp-567441,HfIN,1.2242
mp-567532,Sr8(MnN3)3,0.0
mp-567781,Cs3Zr7BCl20,1.195399999999999
mp-568030,Th(Al5Fe)2,0.0
mp-568080,CeP2,0.0
mp-568082,La3CuSiSe7,1.6235
mp-5692,TbRhO3,0.8749000000000001
mp-569250,VIr,0.0
mp-569686,La3C2I3,0.032899999999999
mp-569696,La(AlGa)2,0.0
mp-569892,Ca9B2(CCl2)4,1.3729
mp-569913,Ce3SiPt5,0.0
mp-570452,Y(SiAu)2,0.0
mp-571039,CaAlPd,0.0
mp-571144,Sm3Te4,0.0
mp-571501,Pr13Zn58,0.15629999999999902
mp-573030,Cs2LiNbS4,2.4983
mp-573568,K2TcI6,0.7361000000000001
mp-581834,CsNa5(WN3)2,1.778
mp-581955,CsSi2SbO7,3.227099999999999
mp-582753,Tl2Te,0.6482999999999991
mp-5848,ErZrSb,0.0
mp-602659,HXeF7,2.930599999999999
mp-6037,Ba2SmSbO6,3.6097
mp-605437,FeHO2,0.0
mp-607829,AlTlI4,3.449199999999999
mp-617543,Th(InBr3)2,2.7685999999999993
mp-620032,Ti2Se,0.0
mp-643793,Cu3H2(OF2)2,0.3267
mp-645513,HfTl8(MoO4)6,3.4478
mp-646297,Hg4Pb2N6O19,1.8286
mp-649033,Sr5(InSb3)2,0.0678
mp-649509,Yb2(SeO4)3,0.0
mp-653855,Pr3PtI3,0.0
mp-662558,Ce3Sb5Pd6,0.0
mp-676291,Ta6Te3S,0.0
mp-676305,Mg4Sb2O9,2.1564
mp-676313,RbMo3Br7,2.3358
mp-690511,K10Co4O9,0.375299999999999
mp-6939,Sr(BIr)2,0.0
mp-697126,Ca4(H4Rh)3,0.0
mp-707836,Na3H6Ir,3.3079
mp-735051,GdH18(IO3)3,2.214
mp-753519,CuPO4,0.0
mp-754214,TlAsO4,0.0
mp-754829,Na4VO4,0.98
mp-756374,SrPt3O4,0.0
mp-7573,Co(BW)2,0.0
mp-762082,ThH10N4O17,3.595499999999999
mp-775198,Ti3P6WO24,2.5217
mp-7822,Sc5Si3,0.0
mp-8202,CsRb2PdF5,2.2437
mp-833,CaPd2,0.0
mp-849527,Rb3InO3,1.898899999999999
mp-861639,Ti2CoIr,0.0
mp-862297,LiAlRh2,0.0
mp-862340,Sc2GaCu,0.0
mp-862370,Sc2PdRu,0.0
mp-862613,LiAc2Ga,0.0
mp-862662,LaMgZn2,0.0
mp-862846,CaLaHg2,0.0
mp-862961,PmSnRh2,0.0
mp-863658,PmCl3,3.5423
mp-863664,Pm2CuGe,0.0
mp-864634,EuCd3,0.0
mp-864735,Mn3Ir,0.0
mp-864971,MnSnRu2,0.0
mp-864994,DyHg3,0.0
mp-865145,NaTl2Bi,0.5745
mp-865327,TmHg3,0.0
mp-865472,VSiTc2,0.0
mp-865493,VI3,0.0
mp-865588,Y2CuRu,0.0
mp-865589,Lu2IrPd,0.0
mp-865915,Li2AcPb,0.0
mp-866018,Ac2ZnGe,0.0
mp-866028,Dy2Ge5Rh3,0.0
mp-866029,Gd2IrPd,0.0
mp-866127,LuTaOs2,0.0
mp-866200,Li2SmTl,0.0
mp-866668,Rb2SbBr6,0.0
mp-866789,Gd5(C2Cl)3,0.0
mp-867160,LiCd2Au,0.0
mp-867322,Pr3SiAgS7,1.8303
mp-867528,Ge7H8N2O15,2.7923999999999998
mp-867810,LiYHg2,0.0
mp-867897,ScTaRu2,0.0
mp-8886,Tc2As3,0.0
mp-8948,CeAsPd,0.0
mp-931,ThP,0.0
mp-9420,Dy(CuO2)2,0.0
mp-949,CoPt,0.0
mp-9559,Nd3IrO7,0.0
mp-972649,SmHoRu2,0.0
mp-972659,SmCoSi3,0.0
mp-973938,LuCoGe2,0.0
mp-975359,Rb(FeAs)2,0.0
mp-975663,Pr(CoB)4,0.0
mp-975892,PrMgAg2,0.0
mp-977561,LiTaIr2,0.0
mp-9782,KAg3Se2,0.0039000000000000003
mp-989526,Cs2KTlF6,3.9290000000000003
mp-9987,Nb2PC,0.0
mp-999455,NaSmS2,0.0
mp-10036,Ce3AlC,0.0
mp-10112,LaB2Ir3,0.0
mp-1014226,Zr3ZnN,0.0
mp-1018135,LiCdAs,0.37349999999999905
mp-1018136,LaBiPt,0.167799999999999
mp-1018139,HoNiBi,0.2515
mp-10186,PuSi2,0.0
mp-1021323,LiC12,0.0
mp-1024941,YB2Rh3,0.0
mp-1025051,YbB2Rh3,0.0
mp-1025134,HoCu4Pd,0.0
mp-1025168,RuF6,0.0
mp-1025258,ZnPPd5,0.0
mp-1025265,Cs2CuF4,0.0
mp-1025309,Pr(Re2Si)2,0.0
mp-1025444,ErPt,0.0
mp-1029448,Li5OsN4,0.0
mp-1039345,CeMg2,0.0
mp-10487,RbSb,0.689299999999999
mp-1067937,Ho2BiO2,0.0
mp-1068243,Lu2InNi2,0.0
mp-1068746,TlHPd3,0.0
mp-1068782,SmSi3Os,0.0
mp-1070573,LaAl3Cu,0.0
mp-1071492,ErSnGe,0.0
mp-1077762,NdSiPt,0.0
mp-1077796,LaInPt4,0.0
mp-1078354,Sr2CrOsO6,0.0
mp-1078518,Sr2NiIrO6,0.0
mp-1078790,DyInPt2,0.0
mp-1079308,SmAsRuO,0.0
mp-1080739,Eu3(SF2)2,0.0
mp-1091390,Ca(GePt)2,0.0
mp-1095172,CsNdS2,2.2669
mp-1095223,OF2,2.1259
mp-1095231,Ba3(LiBi)4,0.0
mp-1095419,TaCrP,0.0
mp-1095465,YGeRh,0.0
mp-1095587,LaGaPt,0.0
mp-1102076,EuMgPd,0.0
mp-1102249,TbRe2,0.0
mp-1102518,Tm3(CuSi)4,0.0
mp-1102733,HoAsS,0.0882
mp-1102820,ErAlPd,0.0
mp-1103411,Dy2Au,0.0
mp-1103558,PrGaNi,0.0
mp-1103629,CeNiP,0.0
mp-1103838,Pd2PbO4,0.0
mp-1105580,U2Si5Os3,0.0
mp-1105583,Er7CoI12,0.455999999999999
mp-1105966,Gd2Te3,0.09919999999999901
mp-1112486,Cs2TlRuF6,0.0
mp-1113695,Rb2AgSbCl6,1.642
mp-11352,PrAl5Ni2,0.0
mp-11422,GdHg,0.0
mp-11440,HfGa2,0.0
mp-11498,MgTl,0.0
mp-11521,ScNi,0.0
mp-11597,NdBPt3,0.0
mp-11723,ErNiC2,0.0
mp-1183677,CaCeIn2,0.0
mp-1183962,Eu2CdPb,0.0
mp-1184037,CsH5N2,2.160999999999999
mp-1185592,Mg149Fe,0.07790000000000001
mp-1185601,LaPmGa2,0.0
mp-1185637,Mg149Sn,0.4181
mp-1186232,NbTc2Sn,0.0
mp-1186485,Pm2NiGe,0.0
mp-1186763,Ta2MoW,0.0
mp-1187818,YbAg2Pb,0.0
mp-11887,K2U3(TeO7)2,1.8661999999999992
mp-1188789,Tb4Ga12Fe,0.0
mp-1189339,Ba2InSbSe5,0.8456
mp-1190624,LiLuSn,0.027999999999999
mp-1190642,Er2Fe12P7,0.0
mp-1190664,Tb2Ni12P7,0.0
mp-1191002,Nd2Ni12As7,0.0
mp-1191587,Gd4MgRh,0.0
mp-1191795,Ho2Ni12As7,0.0
mp-1192374,K(GeAs)3,0.6880000000000001
mp-1192509,Cs2Th(AsO4)2,3.6208
mp-1192524,Na2Th(AsO4)2,3.6754
mp-1192718,SbH5(Cl3O)2,1.9243999999999999
mp-1192764,Cu3(CO4)2,0.0
mp-1192963,Ce6Mg23P,0.0
mp-1193092,ErBe13,0.0
mp-1193161,Yb(Al5Ru)2,0.0
mp-1193658,Y3Te3N,1.1253
mp-1193862,Hf9Re4Si,0.0
mp-1194108,Zr4Rh2N,0.0
mp-1194195,Zr6Ga16Ir7,0.0
mp-1194442,BaRu2Xe5F22,1.2639
mp-1194798,Sc2Se3O10,3.5955
mp-1194866,Ca3(SiP2)2,0.8737
mp-1194987,Sr(In4Ir)2,0.0
mp-1195626,SrCdB2O5,3.5614999999999988
mp-1195868,LiCeF5,2.2762000000000002
mp-1195912,VPbOF5,2.5426
mp-1195923,DyCo3P2,0.0
mp-1196063,Ga2Se2O7,3.4975
mp-1196279,Sc11Ge10,0.0
mp-1196324,AgSO4,0.0
mp-1196945,Cd3B4(PbO4)3,2.6693
mp-11984,YMgTl,0.0
mp-1200124,PPb2IO4,2.931499999999999
mp-12007,HoCdCu4,0.0
mp-1200835,Tb5(Ge5Ir2)2,0.0
mp-1202244,La18In3Co28,0.0
mp-1202507,EuAlF5,0.7047999999999991
mp-1202948,Ba3(AlP2)2,1.2751000000000001
mp-1204074,NaAuS,2.0557
mp-1204264,In12Ga4Ir2O15,1.4394999999999991
mp-1205067,KNa4FeO4,2.0875
mp-1205369,YPdPb,0.0
mp-1205464,Gd6CoCl10,0.0
mp-1205614,ThMn2SiC,0.0
mp-1205874,Lu6FeBi2,0.0
mp-1205925,Sm2InAu2,0.0
mp-1206020,K2Ce(CuS2)2,0.570599999999999
mp-1206060,LaMgAu,0.0
mp-1206126,Nd(PPd)2,0.0
mp-1206216,ThCoSi2,0.0
mp-1206349,K(CoP)2,0.0
mp-1206454,Er2CdCu2,0.0
mp-1206521,La(MgSi)2,0.0
mp-1206525,SrAsAu,0.0
mp-1206956,PrRe2SiC,0.0
mp-1207474,Zr4N3OF5,2.3558
mp-1207642,Yb3(P3Pd10)2,0.0097
mp-1207656,YPtF7,2.1466
mp-1207662,YGeRh2,0.0
mp-1207807,Y4MgRh,0.0
mp-1207860,Y6Nb4Al43,0.022599999999999003
mp-1208206,Tm5In4,0.0
mp-1208217,TiAsRu,0.0
mp-1208218,U6Nb4Al43,0.0
mp-1208331,TbSbIr,0.0
mp-1208462,Tb3Ge4,0.0
mp-1208552,Tb2(Al3Ir)3,0.0
mp-1208796,Sr4SiP4,1.3242999999999991
mp-1209306,Rb6Na4Tl13,0.0
mp-1209385,RbAg(PO3)2,2.9309000000000003
mp-1209651,Pr2NiB10,0.0
mp-1209972,Nd3(Al3Os)4,0.0
mp-1210066,NaLaAgTe4,0.0
mp-1210211,Ni16GeP5,0.0
mp-1210315,Rb(Nb2Cl5)3,0.9742000000000001
mp-1210651,Lu5Ni2Bi,0.0
mp-1211223,Li3Yb3(TeO6)2,0.0
mp-1211383,Li2Ni2(MoO4)3,2.9686000000000003
mp-1212053,K2MgGeO4,3.4728
mp-1212349,In2(SeO4)3,2.3121
mp-1212505,K2Sr(Ge4O9)2,2.9798
mp-1213162,Er3NiGe2,0.0
mp-1213349,CsGd2Cl7,2.621299999999999
mp-1213393,H9C6N11,3.6852
mp-1213450,Gd3Lu2(GaO4)3,3.078999999999999
mp-1213498,CsSm(NbBr3)6,0.9851000000000001
mp-1213875,Ce3Ni2Ge7,0.0
mp-1214045,Ca3Ge2Au9,0.0
mp-1214568,Ba4(Sn3Bi)3,0.0
mp-1214597,BaCa2WN4,2.5783
mp-1215752,Zn6B5Ir11,0.0
mp-1215876,Yb6P19Rh30,0.0
mp-1215897,Zn53Co7,0.0
mp-1216147,Yb2ZnSb2,0.0
mp-1216709,TiNbB2,0.0
mp-1217278,Th2Si3Pt,0.0
mp-1217494,U11Se20,0.000399999999999
mp-1217575,Th14Ag51,0.0
mp-1218053,Ta3(CuS3)2,0.0
mp-1218104,SrPr3(FeO3)4,0.0
mp-1218985,SmGdB12,0.0
mp-1219661,Rb(GePt)4,0.0
mp-1220203,NdCdIn,0.0
mp-1220476,NbAl2Ni9,0.0
mp-1221156,Na4Sr2TiAs4,1.2057
mp-1221266,Sc15(In5Rh2)4,0.0
mp-1221996,Mn2CoO4,0.7612000000000001
mp-1222884,LaAlSi,0.0
mp-1223222,La4C2I5,0.0
mp-1223528,KGaGeS4,2.3772
mp-1223574,KFeSn3O8,1.459899999999999
mp-1223966,Ho2AlFe3,0.0
mp-1224285,HfTaC2,0.0
mp-1225549,LaAl2Cu3,0.0
mp-1225847,Dy14Ag51,0.0
mp-1225903,Gd2Mn(GeO3)4,2.1607
mp-1226048,CoNiTe4,0.0
mp-1226537,Cs3Ge2Sb3O13,1.7859
mp-1226588,CeGaNi4,0.0
mp-1226640,CeU(Pt4Au)2,0.0
mp-1226720,CdSnAu,0.0
mp-1228988,AlAg3,0.0
mp-12305,Sc11Os4,0.0
mp-12343,CsSmZnTe3,1.3678
mp-1239157,NbCr3(CuS4)2,0.0
mp-12449,LiPr2OsO6,0.0
mp-12455,TmCuS2,1.6667
mp-1245745,MgTiN2,0.38580000000000003
mp-12627,Nb3S4,0.0
mp-12699,Ca3Au4,0.0
mp-12834,ThCu6,0.0
mp-1294,YCo2,0.0
mp-12944,HoAsO4,3.629699999999999
mp-13236,Ho5Si3,0.0
mp-13360,Y5Ge4,0.0
mp-13775,Gd2Si2O7,3.2563
mp-13963,HfSiTe,0.0
mp-13975,Er2SeO2,2.1792
mp-1403,Sm2S3,0.744499999999999
mp-14445,Ca(BIr)2,0.0
mp-15125,Rb2CdSi5O12,3.8268
mp-15201,Pr2Ti2O7,0.0
mp-1533,Nd3Tl,0.0
mp-15355,U(BRu)4,0.0
mp-1548,PrMg,0.0
mp-15503,Ba4TiAs4,1.036
mp-15608,Ba(MnAs)2,0.0
mp-1585,V3Co,0.0
mp-16159,Pr4Si2S3O7,2.591999999999999
mp-16184,Rb2B2Se7,1.7197
mp-16621,HoAl7Au3,0.0
mp-16955,K2Li3FeO4,0.0
mp-17142,NaCrP2O7,2.7118
mp-17177,Nb2ZnO6,3.2853
mp-17254,TlGaSe2,1.372599999999999
mp-17382,Rb2Si3SnO9,3.8034
mp-17447,Sr10P6SO24,3.543999999999999
mp-18036,Th(NiP)2,0.0
mp-18136,UTl4C3O11,1.7987000000000002
mp-18258,BaTb2O4,3.5514
mp-18712,Mg3Pd,0.0
mp-190,ReO3,0.0
mp-19114,Ca2NiWO6,3.0021
mp-19452,V2Cd(P2O7)2,1.954399999999999
mp-19716,Sm3InN,0.0
mp-19923,GdAl2,0.0
mp-19943,YCuSb2,0.0
mp-2014,DyP,0.0
mp-20294,CeIn5Rh,0.0
mp-20471,U4Si6Tc7,0.0
mp-20906,HoCoC,0.0
mp-20911,LaIn5Ir,0.0
mp-20984,Ce3In,0.0
mp-2105,Hf3Si2,0.0
mp-21079,Tb(GeRu)2,0.0
mp-21224,Sm(GeRu)2,0.0
mp-21383,Eu(SiRh)2,0.0
mp-21426,Dy(FeGe)2,0.0
mp-21443,Ce2Pd2Pb,0.0
mp-21484,PuGe3,0.0
mp-21523,La(In2Au)2,0.0
mp-21536,Ni2Mo4C,0.0
mp-2163,HoRh,0.0
mp-21693,Ce5Sn4,0.0
mp-21891,PrSi2Mo2C,0.0
mp-22181,Gd(GePd)2,0.0
mp-22230,BaPbO3,0.209399999999999
mp-22511,Ce2MgGe2,0.0
mp-22745,Co9Se8,0.0
mp-22841,Ba2In2S5,1.9867
mp-23152,Bi,0.0
mp-23175,Nd4Bi3,0.0
mp-23194,LaI2,0.0
mp-23635,TlRe6Se8Cl3,1.4338
mp-24355,KBe(H2N)3,2.8166
mp-25265,VPO5,1.9020000000000001
mp-2547,YbPd,0.0
mp-2596,NpN,0.0
mp-26262,LiCu(PO3)4,0.6936
mp-2673,YbPb,0.0
mp-2713,ErIr,0.0
mp-27162,Sc3Co,0.0
mp-27184,B10(Pb2O7)3,3.3532
mp-27218,Ge(BrF5)2,2.9327
mp-27450,KCuCl3,0.258099999999999
mp-27636,Cs2SnI6,0.3808
mp-27919,Ti8C5,0.0
mp-2795,ZrC,0.0
mp-27974,PuBr3,0.0
mp-28340,CaAsPt,0.0
mp-28370,Ce15B8N25,0.0
mp-28748,Y3IrI3,0.0
mp-28767,Sc5Re2C7,0.0
mp-2893,Dy(SiRh)2,0.0
mp-28993,La(AuF4)3,2.1698
mp-29259,Bi2PdO4,0.5075000000000001
mp-29336,Rb2PuCl6,0.131199999999999
mp-29705,Rb6Sn2S7,2.1193
mp-29834,Cs4SiSe4,2.215099999999999
mp-29904,SbXe2F9,2.024799999999999
mp-29934,Zr6Ag7F31,2.8062
mp-30096,Be2Te7Cl6,1.339999999999999
mp-30222,Cs3BS3,2.5301
mp-30233,Na3As7,1.4233
mp-30357,Sr3Ag2,0.0
mp-30441,Be17Nb2,0.0
mp-30586,HoInCu2,0.0
mp-30644,Hf3Nb2Ga3,0.0
mp-30794,Na15Sn4,0.0
mp-31207,Zr5GaSn3,0.0
mp-31275,Ba(TeP2)2,1.179699999999999
mp-31348,Sc2In,0.0
mp-31492,CeGaNi,0.0
mp-3363,Sc2Ni2Sn,0.0
mp-3456,Tb(CuSi)2,0.0
mp-3679,NiSbS,0.0
mp-3791,ScCo2Sn,0.0
mp-3884,Ho2Sn2O7,2.914399999999999
mp-3974,Ba5B4O11,3.7594000000000003
mp-4123,ErTlS2,1.5402
mp-423,GePd2,0.0
mp-4382,YB2Ru3,0.0
mp-44,U,0.0
mp-4755,Sc3Fe2Si3,0.0
mp-504962,K2Na3InO4,1.919899999999999
mp-505141,Cs2SnS14,1.465099999999999
mp-505285,K2CoSiO4,2.8553
mp-505434,EuTa2O6,0.0
mp-505546,GdMnB4,0.0
mp-505720,Ho4NiB14,0.021999999999999003
mp-5081,SmCuS2,1.4371
mp-5126,ZnSO4,3.823299999999999
mp-5157,Ca(PRu)2,0.0
mp-5197,ErB2Ir3,0.0
mp-530018,Ta27S50,0.0
mp-542251,LaCdAu,0.0
mp-542832,Ba3Lu4O9,3.2741
mp-542934,CeMg2Cu9,0.0
mp-548479,Cs2U2O7,1.554999999999999
mp-549,ScSb,0.0
mp-5506,Ba(AlSi)2,0.0
mp-554152,Sr4Al6CrO16,2.1944
mp-554449,Mn2BiPO6,1.998199999999999
mp-554805,Sr3Se3(ClO4)2,3.4357
mp-556647,Ba5Re3ClO15,2.5312
mp-557482,Ca5As3O12F,3.9717000000000002
mp-557799,As2Pb(XeF6)3,2.5768
mp-557952,RbInP2O7,3.8306999999999993