material_id,pretty_formula,band_gap
mp-557722,LaSO,1.7221000000000002
mp-558021,K2MoSeO6,3.5119
mp-558155,KFeF4,2.2201
mp-558333,Nd4Ga2S5O4,2.8838
mp-558409,Bi2Te2W3O16,3.0727
mp-559051,BaBiO3,0.07690000000000001
mp-559346,K3Nb3Si2O13,2.1456
mp-559730,KGa(Te3O7)2,2.9729
mp-559768,La2Ti2O7,2.8255999999999992
mp-559837,Bi2Te2WO10,3.0266
mp-559848,Li4SiO4,4.9533000000000005
mp-560228,K6Ti2O7,3.4553000000000003
mp-560306,RbMn4(PO4)3,3.1239
mp-560724,Na4UC3O11,2.1944
mp-561012,Sr3Cu3(PO4)4,0.557299999999999
mp-561131,NaGd(PO3)4,3.449899999999999
mp-561160,NbP4(S2Cl)5,1.1953
mp-561242,TaAgS3,0.003999999999999
mp-561442,Y2Hf2O7,3.3496
mp-561478,KSbMoO5,3.3476
mp-565203,Mn2O3,0.0038000000000000004
mp-566278,WO3,1.3113000000000001
mp-567252,Nb3Se12I,0.0849
mp-567446,La23Cd4Pt7,0.0
mp-567499,CsMn4Cl9,1.9349
mp-567551,SiC,2.0641
mp-567572,GdCBr,0.0
mp-567846,Ta3P,0.0
mp-568716,SrAg,0.0
mp-568761,AgTe,0.24039999999999903
mp-568792,Si5Rh4,0.0
mp-568846,TaBr5,2.028299999999999
mp-568986,KAuCl4,1.4211
mp-569467,Ag5Te2Cl,0.23160000000000003
mp-569666,CdI2,2.4072
mp-569722,CdI2,2.4077
mp-569896,K14(Tl7Cd3)3,0.0
mp-569932,Tl7(Ag18Te11)2,0.0
mp-570080,Li2TeSe3,0.6149
mp-570263,CdI2,2.4514
mp-570448,CdI2,2.4105
mp-570510,Xe,6.193799999999999
mp-570791,SiC,2.067400000000001
mp-570823,Ba(BSe3)2,1.9798
mp-570828,AlHg2SbCl4,0.8828
mp-570880,RuCl3,0.0
mp-570939,CdI2,2.4618
mp-570985,SiC,1.9048999999999991
mp-571225,CdI2,2.4733
mp-571286,SiC,1.8184
mp-571298,SiC,1.6464999999999992
mp-571471,NbCoTe2,0.0
mp-571513,Rb2NbCl6,0.0
mp-571516,CdI2,2.464
mp-571567,CdI2,2.465799999999999
mp-5716,Ba(Mo3S4)2,0.0
mp-571603,CdI2,2.3923
mp-571613,CdI2,2.3903
mp-571635,CdI2,2.457
mp-571660,CdI2,2.413599999999999
mp-571667,CdI2,2.452099999999999
mp-572291,K3ClO,1.0648
mp-5757,CeB2Rh3,0.0
mp-582034,SiC,1.712199999999999
mp-582084,CdI2,2.391899999999999
mp-583052,LuCuPbSe3,1.0381
mp-604613,La2Ga12Ni,0.0
mp-622576,Ba2Sm(CuO2)3,0.0
mp-624668,BaSb2,0.0
mp-632502,Zr2InNi2,0.0
mp-6336,Na3In(PO4)2,3.3841
mp-637062,AsXe2F9,1.7123
mp-640836,Ca2Ta2O7,3.4624
mp-642659,V2H,0.0
mp-643070,Ca4Mg3H14,3.1652
mp-643270,K3ZnH5,3.7682
mp-6440,CaTiSiO5,2.9095
mp-645206,CuReO4,1.4421
mp-645504,Yb23Mg4Cu7,0.0
mp-652220,PBr2N,3.1115
mp-6635,Ba2CaReO6,0.0
mp-667343,Re2(HgO2)5,1.104299999999999
mp-669345,TaTeCl9,2.7788
mp-669347,KCuF3,0.0
mp-672326,In3Ru,0.22780000000000003
mp-673105,Cu3(P2O7)2,0.0
mp-673643,Ce17O32,0.0
mp-675310,Na3(VSe2)5,0.12400000000000001
mp-677597,Ta4AgS8,0.0
mp-680057,Sb3Pd8,0.0
mp-680085,ZnS,2.0167
mp-695209,KNb4AsO13,2.435699999999999
mp-695843,SbH7(Br2O)3,0.8734000000000001
mp-696788,CoP4(H5O8)2,3.4009
mp-696969,Sr(H2N)2,2.404
mp-697179,ZrH,0.0
mp-699229,HPb3ClO3,2.1415
mp-704645,CuO,0.0
mp-706273,KH(IO3)2,3.463999999999999
mp-753260,LaAgO2,2.909699999999999
mp-754118,Sr(AsO3)2,3.284
mp-754599,BaTm2O4,3.6130999999999993
mp-754966,Li2MnF6,2.6845
mp-755989,V4CoNiO12,2.1374
mp-756088,SrTaNO2,1.4941
mp-756198,Li14Mn2S9,1.7888000000000002
mp-757571,Ba13Nb14O42,0.0
mp-758970,K3Ti8O17,0.0
mp-759726,Li2MnSiO4,3.075799999999999
mp-759793,LiTi2(PO4)3,2.6008
mp-759856,W(OF)2,1.861899999999999
mp-761961,Rb5(WO3)18,0.0
mp-764098,Li2Ni3TeO8,0.0
mp-766279,Dy11Y5O24,3.96
mp-768685,Rb5FeO4,1.4336
mp-769349,BaTa6O16,2.2768
mp-770669,Li24Mn11CrO36,1.261699999999999
mp-771017,Tb2WO6,3.6239
mp-772976,Li8Mn15NiO32,0.6765999999999991
mp-774100,Dy29Y3O48,3.947
mp-778865,V4(OF3)3,1.2831000000000001
mp-780619,RbTaO3,4.117599999999999
mp-849500,LiMnBO3,2.9334
mp-861595,Pr2CdCu2,0.0
mp-862915,Er2Mg,0.0
mp-863659,LiScHg2,0.0
mp-865045,MnRu3,0.0
mp-865203,YCuPbS3,1.6014
mp-865212,Fe3Re,0.0
mp-865598,YGa3,0.0
mp-865708,LiSm2Ru,0.0
mp-866142,TiGaIr2,0.0
mp-866296,AlCuPd2,0.0
mp-867246,TbGa3,0.0
mp-8950,NdAsPd,0.0
mp-9018,LiCdPO4,3.2221
mp-9407,Nb3SnS6,0.0
mp-9563,Li2Sb,0.0
mp-972351,Tl,0.0
mp-972410,TmLuPd2,0.0
mp-972540,SmYZn2,0.0
mp-973904,HfCr2,0.0
mp-974000,Lu2Fe17C3,0.0
mp-976408,Li3Ag,0.0
mp-976944,Li5Mg,0.0
mp-977110,NaSnPd2,0.0
mp-977352,ThMgZn2,0.0
mp-978640,Sm(Mo3S4)2,0.0
mp-980943,YTmRh2,0.0
mp-983603,ErZnAsO,1.1523
mp-997159,CrAuO2,0.0
mvc-10478,CaBi4O9,0.9268999999999991
mvc-14224,MgWF5,3.2648
mp-1019534,BaAl4O7,3.6914
mp-1019570,Ca8Si5O18,4.5459
mp-1023933,WSe2,1.5234
mp-1024049,Na2Zn2Se3,1.4982
mp-10245,Hf3(CuSi)4,0.0
mp-1025306,AlAsPt5,0.0
mp-1025351,Sr4Bi2O,0.9375999999999991
mp-1025874,MoS2,1.5093
mp-1028441,WS2,1.6078000000000001
mp-1064981,HfCo,0.0
mp-1069801,Ho2AlNi2,0.0
mp-1076951,CeNiGe,0.0621
mp-1078556,Dy2NiAs2,0.0
mp-1080060,LaAlO3,3.8493
mp-1094998,CaMg,0.0
mp-1095072,Sm(PIr)2,0.0
mp-1096815,Ba3Ta4NbO15,0.0
mp-1101441,Rb4TiO4,2.7967999999999993
mp-1101589,Mo2P2O11,2.0454
mp-1101792,EuMg2,0.0
mp-1102394,Nb5B6,0.0
mp-1102396,Ba2In,0.0
mp-1102963,VO2,0.0
mp-1103169,NaAgO,1.486
mp-1103249,Ho3(CuSn)4,0.0
mp-1103255,UB4W,0.0
mp-1103658,LaS2,0.7088000000000001
mp-11038,Zr6Al2Fe,0.0
mp-1104168,NaEuAsS4,0.0
mp-1106117,La5AgPb3,0.0
mp-1111998,K2ScAgBr6,2.883499999999999
mp-1112624,Cs2LiGdCl6,2.7824
mp-1112795,Cs2YInI6,2.7342
mp-1114587,Rb2NaCeBr6,0.34589999999999904
mp-1120788,CoCl2,0.1097
mp-11489,Li3Pd,0.0
mp-11629,Tb2Al6Si4Au,0.0
mp-1178422,Cs3GaO3,2.567
mp-1178513,BaSnO3,0.665099999999999
mp-1179315,SrTeO3,3.2315
mp-1180807,KMnF3,3.3753
mp-1180870,K3NaCr2O8,3.0771
mp-1181006,LiVTeO5,2.7874
mp-1182789,FeCl3,0.042100000000000005
mp-1183550,CaTmRh2,0.0
mp-1183561,CaHoCd2,0.0
mp-1183583,CaYZn2,0.0
mp-1183798,DyLuZn2,0.0
mp-1184585,Ho2CuOs,0.0
mp-1184601,HfZrRu2,0.0
mp-1184766,Hg,0.7642
mp-1184972,Li2InBi,0.5193000000000001
mp-1185293,LiAc2Tl,0.0
mp-1185546,CsRb2Bi,0.43809999999999905
mp-1186067,Na3Pd,0.0
mp-1187464,TiAlIr2,0.0
mp-1187863,YTmZn2,0.0
mp-1188414,SrTcO3,0.0
mp-1188440,LiMnVF6,2.3789
mp-1188534,ScCrC2,0.0
mp-1188662,NaAs,1.141499999999999
mp-1188989,Tb3Co2Ge3,0.0
mp-1189243,ErPd3S4,0.0
mp-1189633,Sb2S3,1.2953999999999999
mp-1191097,Ce4S3NCl3,0.0
mp-1191422,TiCo2,0.0
mp-1192223,Nb6Sn5,0.0
mp-1192336,Nb2PbO6,2.6477
mp-1192378,AlTlSiO4,3.495999999999999
mp-1192421,B2Pb2O5,2.7436
mp-1192537,Nb2PbO6,2.646499999999999
mp-1192732,Cs3H(SeO4)2,3.7763
mp-1192802,Cs2ZnI4,3.189899999999999
mp-1193687,Ce6Ni6P17,0.0
mp-1194253,Hf9W4Se,0.0
mp-1195118,BaTe3O7,3.2254
mp-1195339,NbBOs,0.0
mp-1195452,Rb3Sb2I9,1.8775
mp-1195752,Sr7Cu44As23,0.0
mp-1195873,KVOF3,2.7796000000000003
mp-1196124,BaGe4O9,2.9962
mp-1196608,Nd6TlFe13,0.0
mp-1196873,Er3Co4Ge13,0.0
mp-1197730,SiC,2.016899999999999
mp-1197743,TbV(SeO4)2,1.8726999999999991
mp-1197757,Ba20Cd4Hg99,0.1421
mp-1198337,Yb2Fe3Si5,0.0
mp-1198577,In2B(PO4)3,3.89
mp-1198599,BaTi(SiO3)3,3.0844
mp-1199722,Bi(W2Cl5)3,2.2981
mp-1199914,MnSeO3,3.5632
mp-1200271,AgPd3Se,0.0
mp-1200595,V4Cd9O19,2.036
mp-1200692,SiC,1.991499999999998
mp-1200843,Nd3RuO7,0.0
mp-1200874,Ce2MgNi2,0.0
mp-1201373,Cs2Mo5(P3O11)3,1.4311
mp-1201679,BaLa2WO7,3.3414
mp-1202337,U(Zn10Co)2,0.0
mp-1202805,Na4UC3O11,2.2024
mp-1203797,Nd13(B2O13)2,0.0
mp-1203864,BP3(PbO4)3,3.9628
mp-1204356,SiC,1.8603
mp-1204461,CsVSO6,2.1349
mp-1204598,Bi6Mo2O15,2.6466000000000003
mp-1205305,Tb2CoGe2,0.0
mp-1205378,LuCuPbSe3,1.104099999999999
mp-1205522,Y2FeSi2,0.0
mp-1205635,Cs2KPdF6,0.7041000000000001
mp-1206325,RbCrF3,0.9717000000000001
mp-1206817,TlVCl3,0.277
mp-1206895,La2Ni2I,0.0
mp-1208546,Ta24Al19,0.0
mp-1208834,Sr2CrSbO6,1.8769
mp-1209004,Sc2TlCu3Se5,0.8650000000000001
mp-1209063,Re4As5S4,0.0
mp-1209250,Sb3IO4,2.5661
mp-1209566,PrTa7O19,3.1661
mp-1209577,Rb2Y2(PO4)3,0.030300000000000004
mp-1209774,PHPbO4,3.928699999999999
mp-1209791,NiP8W,0.0
mp-1210008,Pr2(MoO4)3,3.6599999999999993
mp-1210205,Nb4P2AuS20,0.0171
mp-1211277,La3ZrGa5O14,3.705
mp-1211367,KHg5Cl11,2.6526
mp-1212234,Ho6Co2Sn,0.0
mp-1212953,Eu2HgO4,0.0
mp-1213230,Dy2(MoO4)3,3.5846
mp-1213292,CsW3Br7,2.697
mp-1213345,LiEu6B3O14,0.0018000000000000002
mp-1214039,Ca3Pr2Sb3O14,0.0
mp-1214046,Ca3Si4,0.415599999999999
mp-1214967,Al2Cd3(GeO4)3,2.1907
mp-1215009,BaFe2PbO5,0.0
mp-1215213,ZrTaCr4,0.0
mp-1216369,Zr2P3H3O13,4.2669000000000015
mp-1216439,V6CoNi,0.0
mp-1216706,U2PS,0.0
mp-1216770,V2AgP3O11,1.7812000000000001
mp-1216976,Tl5Sb10As3S22,1.541299999999999
mp-1217185,Ti3CoS6,0.0
mp-1217217,Ti3Bi6WO18,2.283399999999999
mp-1217241,Ti5InS8,0.0
mp-1217470,TbHoAl4,0.0
mp-1217483,TlMo3Br7,2.2451
mp-1217539,TbGd(PO4)2,3.4486
mp-1217571,TbGd3(PO4)4,3.2914
mp-1217594,V4(PO5)3,1.2072
mp-1217818,TaVB4,0.0
mp-1218072,Ta4FeCoO12,2.271999999999999
mp-1218119,Ta6Mn(CS2)3,0.0
mp-1218340,Sr3La(CoO4)2,0.08169999999999901
mp-1218383,Sr4BrN2Cl,1.911499999999999
mp-1218639,Sr5Mn4CO13,0.0
mp-1219193,SiNi6Ge,0.0
mp-1219504,Sb3TeClO6,2.705599999999999
mp-1219598,RbCrCoF6,2.2611
mp-1219798,Ni6SbTe2,0.0
mp-1219883,Pr2Nd2Sb3,0.0
mp-1219969,PaInO4,1.887399999999999
mp-1220085,Ni3Te4,0.0
mp-1220190,Pb12Br7ClO8,2.7204
mp-1220208,Nd3Y,0.0
mp-1220384,Nd2Ga3Cu,0.0
mp-1220604,Nb9PO25,2.1184
mp-1221018,NaSr4(FeAs)10,0.0
mp-1221393,MoWC2,0.0
mp-1221562,MnZn(GaSe2)4,0.901999999999999
mp-1221783,MnAg2Sn3S8,0.0
mp-1222145,Mg3MnTe4,1.1158000000000001
mp-1222757,Li2MgTi9O20,2.7033
mp-1222789,LaPrAl6,0.0
mp-1223478,KCr5Se8,0.1227
mp-1223511,LaGd(CuSn)4,0.0
mp-1223739,K2Al2B2O7,4.5825
mp-1223852,InGa(AgS2)2,0.6488
mp-1223888,InAgSnSe4,1.154299999999999
mp-1224083,In3Ag3(HgTe4)2,0.08259999999999901
mp-1224144,K2VOF4,2.8230999999999993
mp-1224411,GdYV2O8,2.9817
mp-1224555,Ho2PbS4,2.1942
mp-1224593,La14Zn45Si,0.0
mp-1224723,Gd3Y13O24,3.5135
mp-1224739,GdDy3Ni4,0.0
mp-1224783,GdDyNi2,0.0
mp-1225265,DyErAl4,0.0
mp-1225723,ErLu(B2Ru)2,0.0
mp-1225965,Cu2SnS3,0.034100000000000005
mp-1225985,Er5(Sn3Rh)6,0.0
mp-1226110,Cr8Co3NiS16,0.0
mp-1226485,CeThSi4,0.0
mp-1226949,Ce2Ga5Cu3,0.0
mp-1227558,Ca4GaSi3,0.0
mp-1227665,BaSrGa4,0.0
mp-1227709,BiP3(PbO4)3,3.702499999999999
mp-1227928,BaSrPb6,0.0
mp-1228413,Ba2La(CuO2)3,0.0
mp-1228500,Al4Ni15Sb,0.0
mp-1228580,Ba2As6O11,3.192599999999999
mp-1228967,AlCr4GaC2,0.0
mp-1277255,CaFe(GeO3)2,2.132199999999999
mp-1279869,Ba2FeMoO6,0.8640999999999991
mp-1281606,Ba3Cr2O8,1.0524
mp-1293180,SrCo2(AsO4)2,2.3287
mp-13001,Ba2HoTaO6,3.3828
mp-1302892,Li2V3CrO8,1.110199999999999
mp-1304,Zr5Si4,0.0
mp-1308212,Li2FeO3,0.603899999999999
mp-1309988,Li2Mn3CoO8,0.8359999999999991
mp-14026,Ca2Ta2O7,2.396099999999999
mp-156,La,0.0
mp-15896,Cu2SiSe3,0.242
mp-1590,Be12Cr,0.0
mp-1643291,Fe2PClO4,3.866399999999999
mp-1666120,LiCrPO4,2.842799999999999
mp-16819,ZnTeO3,3.473199999999999
mp-17304,Ba4Ru3O10,0.0
mp-17383,Ni2Ge,0.0
mp-17679,RbNb(PO4)2,3.0886
mp-18219,Dy2SiSeO4,2.921299999999999
mp-18497,KMoP2O7,3.8588
mp-18695,Fe15Co,0.0
mp-18861,BaNd2Mn2O7,0.0
mp-18958,UMoO6,2.1828
mp-19127,Sr2FeMoO6,2.0295
mp-19420,Sr2MgWO6,3.435899999999999
mp-19427,Na7(CoO3)2,0.010199999999999002
mp-19461,Na5Nd(WO4)4,4.786399999999999
mp-19855,Cr7C3,0.0
mp-21141,Fe2CuGe2,0.0
mp-21317,BaEr2CoO5,1.992399999999999
mp-21395,CrO2,0.0
mp-21613,K5Pb24,0.0
mp-21708,CeCu6,0.0
mp-22163,NaSn2(PO4)3,2.973499999999999
mp-22199,KIn5S8,1.5279
mp-22528,ThCrB4,0.0
mp-22533,Ca3MnNiO6,0.0
mp-22749,Mn5C2,0.0
mp-22810,Ce2MgCu2,0.0
mp-22883,PbI2,2.4334
mp-23282,ZrI3,0.0609
mp-23294,RuBr3,0.0
mp-23383,Rb2TeBr6,2.158
mp-23452,Sn3BrF5,3.033699999999999
mp-27238,SbXeF9,2.1394
mp-27356,AsO2,3.3948
mp-27634,TiBr4,2.7916
mp-27749,K2Sb4S7,1.552899999999999
mp-28076,K3Mn2Cl7,1.178
mp-28095,Au2Se2O7,1.3063
mp-28135,NbXeF11,2.6481
mp-28219,TlCdBr3,2.9081
mp-28525,Mn15(Br3O10)2,0.18130000000000002
mp-28790,Al13(TlS7)3,3.1127
mp-2911,Ba3(SnP2)2,0.793899999999999
mp-29179,SnCl2,3.056599999999999
mp-29579,Sc7NCl12,0.035800000000000005
mp-29741,Tl2(CdSb)3,0.076699999999999
mp-29926,PW5O17,0.0
mp-29959,TlBSe3,1.028899999999999
mp-30156,LiMgN,2.2078
mp-30471,CaCu,0.0
mp-3080,Ca5(Ga3O7)2,3.076
mp-31136,Lu2NiSn6,0.0
mp-31407,Ba5In4Bi5,0.0
mp-3611,Dy2Hf2O7,3.3634999999999993
mp-36329,SrUO4,1.9462000000000002
mp-36966,NaSm2Se3,0.0
mp-3923,Th2MnN3,0.0
mp-4038,Sm3S3N,1.3713
mp-4538,TaSnS2,0.0
mp-488,CuSe,0.0
mp-504996,CsV2P5O16,0.0022999999999990003
mp-505438,BaGd2PdO5,0.027299999999999002
mp-505577,Dy3Ge5,0.0
mp-510633,Pb2CBr2O3,2.7855
mp-5172,Zr2(Ni7B2)3,0.0
mp-525,NbSe3,0.0
mp-530102,Li21Mo11O32,0.010100000000000001
mp-540082,Mo2(PO4)3,1.343099999999999
mp-540644,Sn4SI6,1.3399
mp-541485,Ba3CaRu2O9,0.0
mp-542281,KGdTe4,0.0
mp-542327,Ce5Co19,0.0
mp-542453,NbPO5,2.3830999999999998
mp-542791,ZrNCl,1.741999999999999
mp-545706,Ca3Cu2(BrO2)2,0.0
mp-551830,SrTiO3,1.786999999999999
mp-552176,Ba2PrNbO6,3.0597
mp-553916,ZnS,2.0265
mp-554075,SmCu(MoO4)2,1.9639000000000002
mp-554115,ZnS,2.0181
mp-554120,DyCuS2,1.6346
mp-554148,KFe(MoO4)2,2.315
mp-554339,Ba3Mo2(P2O9)2,2.377799999999999
mp-554384,NaSb(PS3)2,2.041599999999999
mp-554503,ZnS,2.0201
mp-554608,ZnS,1.9339
mp-554681,ZnS,2.0175
mp-554820,ZnS,2.0206
mp-554829,ZnS,2.0067
mp-554923,Sr(GaO2)2,2.6755999999999993
mp-554961,ZnS,1.9651
mp-555077,Sn2IF3,2.3739
mp-555079,ZnS,2.019999999999999
mp-555098,SrSeO3,3.8943000000000003
mp-555151,ZnS,2.024499999999999
mp-555173,UCO5,2.2901
mp-555257,Mg2BiPO6,3.629299999999999
mp-555381,ZnS,1.931699999999999
mp-555543,ZnS,1.9924
mp-555594,ZnS,2.000899999999999
mp-555664,ZnS,2.020699999999999
mp-555666,ZnS,1.858099999999999
mp-555779,ZnS,2.0047
mp-556000,ZnS,2.0174
mp-556390,Rb10Si6O17,3.4663
mp-556448,ZnS,2.000299999999999
mp-556543,ZnS,1.9620000000000002
mp-556784,ZnS,1.9952
mp-556918,NbPO5,2.2614
mp-557159,V2Cd(PO5)2,1.7925
mp-557396,Ag2INO3,1.487699999999999
mp-557569,SmAsS,0.35890000000000005
mp-557869,S,2.7065
mp-557962,SrLiBS3,2.392599999999999
mp-558057,LiCdCoF6,2.822
mp-559210,Ca5Te3O14,1.694799999999999
mp-560105,K3Ho(SiO3)3,3.7626
mp-560127,K2MnF6,3.3301
mp-560368,Na6Cu9(PO4)8,0.0
mp-560558,CsCdAuS2,2.1361
mp-560725,ZnS,2.0197
mp-560776,Sr3Cu3(PO4)4,0.39080000000000004
mp-561013,Ga2PbO4,3.5431
mp-561196,ZnS,2.0271
mp-561266,Sr3V4CdO14,3.1686
mp-561286,ZnS,2.014299999999999
mp-563010,RbFe(MoO4)2,2.5717
mp-566368,K2Te(WO4)3,2.8043
mp-567246,PbI2,2.4177
mp-567594,Cs2HgI4,2.066
mp-567959,Sr11Ga4Sn3,0.0
mp-568031,GaHg2SbCl4,0.8055
mp-568146,Pd(Se3Br)2,1.1012
mp-568477,Rb2SbBr6,0.0
mp-568562,Ni21(SnP3)2,0.0
mp-568696,SiC,1.9207
mp-568735,SiC,2.091100000000001
mp-568796,RbYbI3,3.6062000000000003
mp-569157,BiI3,2.548
mp-569510,CdI2,2.3729
mp-569611,CdI2,2.38
mp-569890,CrCl3,1.4824
mp-570165,CdI2,2.3906
mp-570314,CdI2,2.3775999999999993
mp-570613,CdI2,1.979299999999999
mp-570671,CdI2,2.4445
mp-570723,La5Si5I3,0.0
mp-571179,AlTeCl7,3.1497
mp-571592,CdI2,2.4394
mp-571595,CdI2,2.3941
mp-571615,CdI2,2.4311
mp-571654,CdI2,2.3876
mp-571668,CdI2,2.3944
mp-574485,Cs4Ga2Se5,2.1204
mp-579214,Rb3Mo4(P2O11)2,1.120799999999999
mp-580062,Bi8Te9,0.07500000000000001
mp-581405,ZnS,1.8885
mp-581425,ZnS,2.0194
mp-581609,BiP(PbO2)4,2.6873
mp-581795,Er2Te4O11,3.3516999999999992
mp-582680,ZnS,1.9845000000000002
mp-582968,Bi6Cl7,1.615999999999999
mp-601823,TaTe2,0.0
mp-624234,TePb2O5,2.1878
mp-628758,Eu2Ge2Se5,0.0
mp-636256,LaCu6,0.0
mp-636731,Zr(MoO4)2,3.208
mp-646125,Y5Mg8Cu5,0.0
mp-647075,ZnS,1.9999000000000002
mp-6548,K2La2Ti3O10,2.041899999999999
mp-672231,La3Ge3Br2,0.0
mp-672371,Ni3Sb,0.0
mp-675857,Cd2SnO4,0.3729
mp-677108,Li7(Mo3S4)4,0.0
mp-680087,ZnS,2.021
mp-680395,Li3As7,1.326899999999999
mp-685300,Ti4P8S29,1.071
mp-686102,Tl3In2Se5,0.6144000000000001
mp-695829,RbHSeO4,3.6398
mp-697677,CeMg2H7,0.0
mp-699552,KMoCl4O,2.8897
mp-699581,V3P4PbO17,1.731399999999999
mp-7116,Nb3CoS6,0.0
mp-7499,Tl2Sn2S5,1.6584
mp-753226,SmAgO2,2.6369
mp-754368,NaSbO2,1.661899999999999
mp-755644,Mn2P2O7,3.298699999999999
mp-755776,Rb4SiO4,2.530999999999999
mp-756103,Y2HgO4,2.1903
mp-757242,Li5AuO4,1.9587999999999992
mp-757331,Gd3Y5O12,3.2288
mp-757924,SbH5(Cl3O)2,1.9558
mp-758120,Ba13Bi11O36,0.0
mp-758233,Nb9PO25,2.086
mp-758347,Mn11In25O48,0.0
mp-760510,Sr2Bi2O5,2.2483
mp-763541,KMn2O4,0.30210000000000004
mp-765472,KTi6O12,0.0
mp-766237,Gd3Y13O24,3.4374000000000002
mp-766259,SnH10Cl4O5,3.3114
mp-766393,Li7Ti11O24,0.0
mp-770622,Li24Mn11CrO36,1.3132000000000001
mp-771159,Li2V3WO8,1.5174
mp-7735,Pr5(CoB3)2,0.0
mp-774263,Li13Ti28O56,0.0
mp-775784,Hf2N2O,2.091
mp-776365,Li9Mn21O40,0.362699999999999
mp-777942,Ba14Na8CaN6,0.0
mp-780656,Na2BiO3,1.215199999999999
mp-862263,DyAlAg2,0.0
mp-864754,NaIn3,0.0
mp-864976,Mg2AgIr,0.0
mp-865111,NaSmAu2,0.0
mp-865114,NaDyTl2,0.0
mp-865358,DySnRu2,0.0
mp-865552,CeCdAg2,0.0
mp-865612,LiCd3,0.0
mp-867372,ThCdAg2,0.0
mp-867693,CoPO4,1.1696
mp-867710,Li2FeCo3O8,0.0
mp-867756,Sc2CuAu,0.0
mp-8736,Sr(Mo3S4)2,0.0
mp-9149,Er3P4Pd7,0.0
mp-972640,SmDyZn2,0.0
mp-974558,Na,0.0
mp-976082,Mn2GaW,0.0
mp-976333,Li2AcTl,0.0
mp-977189,Na3Bi,0.19340000000000002
mp-980429,Sm3Hg,0.0
mp-9815,TaTl(CuS2)2,1.8723
mp-985705,CeAgAs2,0.0
mp-997167,NiAuO2,0.0
mp-998536,RbCaBr3,4.3001000000000005
mvc-15849,CaVF6,0.0
mp-1003316,KMn4O8,0.0
mp-1006059,Tl3Bi,0.0
mp-1017981,Hg,0.0
mp-1018026,LiAg,0.0
mp-1018900,PrCuPb,0.0
mp-1023925,WS2,1.697
mp-1023938,Te2Mo,1.2398
mp-1023939,MoS2,1.5539
mp-1025236,Sc(TiGa2)2,0.0
mp-1025399,LaAu,0.0
mp-1025571,WS2,1.6345
mp-1061769,CrSe2,0.0
mp-1064227,Ca,0.0
mp-1064456,CuO,0.0
mp-1078250,Cs2AgBiBr6,1.6215000000000002
mp-1078805,SmSb2Pd,0.0
mp-1080080,LaAlO3,3.666699999999999
mp-1080221,KMn16O32,0.0
mp-1095537,Er3(CuSn)4,0.0
mp-1101786,Tm3(CuSn)4,0.0
mp-1102993,EuAs,0.0
mp-1103088,DyAl3,0.0
mp-1103519,KCuO,1.3403
mp-1103816,BaGaH5,3.1796
mp-1104042,Sr2Zn2As3,0.07939999999999901
mp-1104458,TbGa6,0.0
mp-1104703,Sr2NiClO3,0.0
mp-1104872,Cs3As2Cl9,2.6355
mp-1105797,Lu2InAu2,0.0
mp-1105938,K2Dy4Cu4S9,0.9532
mp-1112177,CsTlBr3,1.0319
mp-1113039,Cs2KNdI6,3.2681
mp-1113437,Rb2AgAsBr6,1.100699999999999
mp-1114658,Rb2LiCeBr6,0.44519999999999904
mp-11322,ZrSi,0.0
mp-1136,Na3As,0.0922
mp-11435,Er(TiGa2)2,0.0
mp-1177916,Li2MnCr3O8,0.9672000000000001
mp-1178562,AgBrO3,2.5145
mp-1178900,YFe2,0.0
mp-11791,CeCuSe2,0.0
mp-1181496,Gd(CoB)4,0.0
mp-1183517,CaCd3,0.0
mp-1183521,Ca3SiO,0.072799999999999
mp-1183556,CaYCd2,0.0
mp-1183574,CaEuZn2,0.0
mp-1183890,Eu2AgSn,0.0
mp-1184105,Dy2TlHg,0.0
mp-1184235,ErMgPd2,0.0
mp-1184341,CeHgAu2,0.0
mp-1185064,LaYbMg2,0.0
mp-1185370,LiMg,0.0
mp-1185403,LiPr2Ga,0.0
mp-1185791,Mg2Ni,0.0
mp-1185850,MgCdPd2,0.0
mp-1186308,NdHgAu2,0.0
mp-1186937,Sc2CdHg,0.0
mp-1187257,TaZn3,0.0
mp-1188683,NdBS3,2.407699999999999
mp-1189121,U3CrSb5,0.0
mp-1189929,Li2PtF6,2.5122
mp-1192531,KCu2SbS3,0.9664
mp-1194373,Na3In(PO4)2,3.274299999999999
mp-1194764,K4U3(AsO8)2,1.8985
mp-1194880,W5I16,0.866499999999999
mp-1195555,K5Mo4O14F,3.6566
mp-1195567,Sc2(TeO3)3,3.404
mp-1195798,Yb5P12Ru19,0.0
mp-1195877,B10H13Cl,3.616799999999999
mp-1196215,La2MgNi2,0.0
mp-1196481,Sr3Te4O11,3.191599999999999
mp-1196727,Ho5Bi2Pd,0.0
mp-11977,LiSnAu,0.0
mp-1197728,Fe2B(PO4)3,2.0289
mp-1197970,Cs3LaBr6,3.784
mp-1198059,Hf2Be17,0.0
mp-1198388,Y2Mn3Si5,0.0
mp-1198882,Y5RuBr9,0.15430000000000002
mp-1199147,K9Fe2O7,2.0603
mp-1199497,CsMo3I7,1.921999999999999
mp-1200675,KIO3,2.8533
mp-1200935,Ba2GaSbTe5,0.9727999999999991
mp-1201279,Th2Zn17,0.0
mp-1201420,Rb2Y(NO3)5,3.3521
mp-1201916,Y2Te3MoO12,2.9933
mp-1203316,Ce2Te7Cl2O17,1.3577
mp-1203455,Sm2ThS5,1.521399999999999
mp-1203589,Sr5Nb5O17,0.0
mp-1204727,Cs3Bi2Cl9,3.102499999999999
mp-1204913,Cs2V2H2O7,3.0825
mp-1205330,Ca3SiO,0.162799999999999
mp-1205392,AgSbS2,1.430799999999999
mp-1206170,YCr2Si2C,0.0
mp-1206867,Sc2Ga8Co,0.0
mp-1207032,Y(PPd)2,0.0
mp-1207787,Y4MgPd,0.0466
mp-1208378,TbCu5Sn,0.0
mp-1208397,TlMo2P3O13,2.2821
mp-1208684,SrCa2(TeO3)3,3.3976
mp-1209028,Sn3IF5,2.8194999999999992
mp-1209366,Pr3(ReO5)2,0.0
mp-1210072,NaFe2PbF9,1.264
mp-1210256,RbNbGeO5,3.075799999999999
mp-1211671,La3Ge5,0.0
mp-1212210,K3LiPb4,0.6089
mp-1212912,Dy5Ni2Bi,0.0
mp-1213106,CuTeSCl,1.2166000000000001
mp-1213286,Dy6Co2Sn,0.0
mp-1213379,CsEr(WO4)2,3.3796
mp-1213537,Nd25Ni49P33,0.0
mp-1214520,BaNbI5O16,2.9097
mp-1214625,Ba2TmCl7,4.973899999999999
mp-1214765,Ba(MgIn)2,0.0
mp-1215496,ZnCdAg2,0.0
mp-1215901,YErAl4,0.0
mp-1216157,Y6Al2SiS14,2.453799999999999
mp-1216268,Y9Lu3Al20O48,4.5394
mp-1216440,V6GaSi,0.0
mp-1216543,Tl3V(SeS)2,1.6417000000000002
mp-1216629,TmGaAg,0.0
mp-1216667,TiVB4,0.0
mp-1216693,V2Cr2GaSe8,0.0
mp-1216756,Tm2(B2Rh3)3,0.0
mp-1217842,TaV(Cu3Se4)2,1.0223
mp-1217928,TaNb(Cu3Se4)2,1.436499999999999
mp-1218022,TaCrCo,0.0
mp-1218470,SrCa(Ni2Sn)4,0.0
mp-1218545,Sr2VAs2O9,1.8249
mp-1218988,SmYCu4,0.0
mp-1218990,SmY4Se5,0.0
mp-1219961,SmCd6,0.0