material_id,pretty_formula,band_gap
mp-3182,Th3B2C3,0.0
mp-32565,Tb4H9,0.0
mp-34713,Na(Pr2Se3)4,0.0
mp-3967,NaNO,3.396
mp-504150,Ni(PO3)3,0.0
mp-505001,Rb3ZnBr5,3.593
mp-505543,Lu2CoB6,0.0
mp-5193,SrZrS3,1.7232999999999992
mp-531523,LiGa5O8,2.2544
mp-5318,MnCoSb,0.0
mp-540609,CsMnI3,0.0
mp-540811,Rb2SbBr6,0.0
mp-540943,SeBr,1.8382
mp-540993,NaMo6Cl13,2.351099999999999
mp-541946,K2Th(PSe3)3,1.4535
mp-542018,Sr2Fe2O5,0.38519999999999904
mp-542058,Tl3B3Se10,1.3114
mp-550172,SnO2,0.8226999999999991
mp-5512,Sr4Al14O25,3.945899999999999
mp-553991,Ti(GaO2)4,2.4065
mp-554072,K2CO3,3.6288
mp-554445,Bi5IO7,2.681
mp-554481,Ba2Sb4P2O17,1.8778000000000001
mp-554533,Hg2Mo2O7,2.2049
mp-554864,K2Ni(MoO4)2,3.4739
mp-554930,Nb2AgPS10,1.4431
mp-554966,Na5MoNO4,2.917099999999999
mp-555620,BaNb7(P2O11)3,0.0
mp-555898,K2Cr3(ClF3)2,2.6337
mp-555946,Pb2CO3F2,3.4793000000000003
mp-556433,Rb5Tl3O,0.027000000000000003
mp-556459,VPO5,1.9468
mp-556474,Pr2B2MoO9,3.3663
mp-556688,Ba2V2ZnO8,3.4313000000000002
mp-557449,KCrIO6,2.6645000000000003
mp-557564,CeNbO4,0.0
mp-557625,Yb3GeO,0.017300000000000003
mp-557735,BaCuTe2O7,0.0
mp-557738,Li3BiO4,1.0707
mp-558108,U3Tl2(IO5)4,1.7307000000000001
mp-559185,Li8Bi2(MoO4)7,2.9688
mp-559276,AlBPbO4,3.0563
mp-559638,K3NpO2F5,0.28040000000000004
mp-559736,VAgO3,1.6427
mp-559747,La2Ti2SiO9,2.612199999999999
mp-560411,CdSb6(S2I)4,1.738599999999999
mp-560512,Sm2EuBeO5,0.0
mp-560608,Nd10S14O,1.8331
mp-560824,La6B(NO2)3,1.103599999999999
mp-561009,K2U2WO10,1.8912
mp-561180,Nd2Te4MoO14,3.2931
mp-562468,TiF3,0.0
mp-567548,BaCo(SeO3)2,2.9833
mp-567550,In3Au7,0.0
mp-567919,Al45V7,0.0
mp-568774,Ca36Sn23,0.06709999999999901
mp-568802,KBi(PSe3)2,1.7796
mp-569213,Dy4Ni12Sn25,0.0
mp-569287,TlPAuSe3,1.056099999999999
mp-569436,MoCl5,0.0
mp-569518,U2Zn17,0.0
mp-569610,CoI2,0.0
mp-569776,TaNi3,0.0
mp-569849,Li15Si4,0.0
mp-569900,Sc3Zn17,0.0
mp-570071,Dy2Zn17,0.0
mp-570594,Sm3CuSnSe7,1.246299999999999
mp-570796,SbCl5,1.851999999999999
mp-570869,LiNb3InCl9,0.9529999999999991
mp-571383,PdSe,0.17830000000000001
mp-572361,Cs2Ti(PO4)2,3.4995
mp-572906,Cs2U2Mo3O16,2.4489
mp-574085,Dy5Sn13,0.0
mp-574909,K2NbS7,1.3163
mp-581449,Re(TeCl6)2,1.0362999999999989
mp-581730,Ho4Ga21Ni10,0.0
mp-582240,Sm13Cd58,0.0
mp-5979,Mn3(P3Pd10)2,0.0
mp-604321,Rb,0.0
mp-604516,Y2AlNi2,0.0
mp-6049,Ba4Tb(RuO4)3,0.0
mp-625406,La(HO)3,3.839
mp-636284,WO3,1.3085
mp-638686,AgNO3,2.0191
mp-638813,CeErS3,0.0
mp-643702,Cs3ZnH5,2.7803
mp-651155,TeI4,1.7080000000000002
mp-655448,Dy3Ge4,0.0
mp-662823,In10(Pb2S7)3,1.0556
mp-675063,KBa2As5,0.255099999999999
mp-675230,NaLaS2,2.5115
mp-675524,CsPbCl3,2.5958
mp-675539,Na7Cu3O8,0.9837000000000001
mp-675668,Yb(PrS2)2,2.0251
mp-6763,K2Ti(Si2O5)3,3.2874
mp-676829,Li49Cu8N19,0.0
mp-686094,Ti3CuS6,0.0
mp-699284,Li2HN,2.632
mp-7144,Sm3AlC,0.0
mp-715514,V2O3,0.0
mp-715584,MoO3,1.9184
mp-720789,UH12(NO7)2,2.4382
mp-721564,Na3SiH5O6,3.864699999999999
mp-722980,Hg4HN3O10,2.057
mp-752432,Gd3NbO7,2.3862
mp-753902,LiFeBO3,3.515599999999999
mp-754111,LuWO4,1.928599999999999
mp-754150,La3GaO6,3.8351
mp-754461,V4OF11,1.5838999999999999
mp-754807,LiFeSbO4,1.2033
mp-755,CoSb2,0.0
mp-755565,HoBrO,3.8617999999999992
mp-755653,LiFeF5,0.514199999999999
mp-756060,V2OF5,1.5817999999999999
mp-756578,LaMgI5,1.973199999999999
mp-756933,TaTlO3,0.460099999999999
mp-758967,VOF,1.1323
mp-759073,Na5V12O32,0.0
mp-759330,Rb4Ge9(H3N)5,1.9816999999999991
mp-759377,LiTi2(PO4)3,2.5656
mp-759968,Na2BiO3,0.020199999999999
mp-760080,CeTh9O20,1.9612999999999992
mp-761117,Na7(WO3)13,0.0
mp-765195,WO2F,1.656299999999999
mp-766258,Y13Tm3O24,3.9935
mp-768283,UAs2H6O11,2.3731
mp-768419,La(ClO4)3,3.9278
mp-768716,Rb17Fe5O16,1.8487
mp-770570,Dy2WO6,3.7745
mp-771816,Gd3NbO7,2.2513
mp-771882,NbVO5,2.0402
mp-773082,Li2V3CrO8,1.0848
mp-774417,Sn3P6WO24,2.7074
mp-774528,Li11Ti24O48,0.0
mp-774583,Li2Fe3SbO8,2.0753
mp-776225,Hf2N2O,1.920399999999999
mp-776575,BaTm2O4,3.8379000000000003
mp-777396,Li2Mn3FeO8,0.869699999999999
mp-779973,Hf2N2O,2.0603
mp-846,Hf2Al3,0.0
mp-850049,CoS2,0.0
mp-861977,PaGaNi2,0.0
mp-862334,Sc2IrRh,0.0
mp-864887,MgH4(NO4)2,3.4439
mp-864891,NaPO3,5.1370000000000005
mp-865860,Li2TmIn,0.0
mp-866013,DyTmMg2,0.0
mp-867298,CeTlAg2,0.0
mp-867514,BaTbMn2O5,0.0
mp-8688,V4GeS8,0.0
mp-8996,Sc3RuC4,0.0
mp-9085,CsTbS2,2.2489
mp-9086,CsDyS2,2.2541
mp-9194,SmCuSeO,1.294399999999999
mp-973676,HgS,0.0
mp-973996,Lu2GaCu,0.0
mp-974411,Re3Tc,0.0
mp-974920,Na,0.0
mp-976047,Li3Hg,0.0
mp-978293,Mg3Pb,0.0
mp-980094,TiPd,0.0
mp-982388,HoTmMg2,0.0
mp-982974,LiBeAu2,0.0
mp-984725,BaTl3,0.0
mp-984761,CsRb2Sb,0.6602
mp-996969,AgBiO2,1.6681
mp-997098,CuPtO2,0.0
mvc-10056,CaCr2P2O9,1.9363000000000001
mvc-16037,Ca(TiS2)4,0.0
mvc-8003,Mn3Zn2O8,1.5862
mp-1001024,Y2MgS4,1.7768000000000002
mp-1006118,P2S7,2.0233
mp-1018745,LaSbPd,0.0
mp-1025027,HoB2Rh3,0.0
mp-1025143,DyB2Rh3,0.0
mp-1025500,ZnCu2SnS4,0.0
mp-1029782,Ca3W3N5,0.0
mp-1062310,LuCd2,0.0
mp-1065190,AgO,0.0
mp-1067920,Bi2TeO2,0.0
mp-1068256,USi3Ir,0.0
mp-1068331,Y2Ni2Sn,0.0
mp-1068803,YbGa4,0.0
mp-1077179,As2W,0.0
mp-1077251,Er2SiRh3,0.0
mp-1078223,Eu(Ag2Sb)2,0.0
mp-1078676,Tl2SnHgSe4,0.8885000000000001
mp-1078771,Tb2Ni2Sn,0.0
mp-1079295,ErSi,0.0
mp-10861,Hg,0.0
mp-1095106,Gd(CuSn)2,0.0
mp-1102381,Dy2Ga8Co,0.0
mp-11031,CeAl7Au3,0.0
mp-1103850,Eu2GeS4,0.27590000000000003
mp-1103982,Lu2CdSe4,0.7033
mp-1104182,MoPO5,1.3123
mp-1104888,Zn(AgI2)2,2.0567
mp-1105256,LaCu4P3,0.0
mp-1105527,ZnCu2GeS4,0.49990000000000007
mp-1105663,Pr3Sb4Pt3,0.0
mp-1111107,K2LiTiF6,0.0
mp-1112125,Cs2RbInCl6,3.6863
mp-1112687,Cs2KYI6,3.2834
mp-1113300,Cs2InHgBr6,0.0
mp-1147627,Li10Zn7(PS4)8,2.6635
mp-1147642,Ba2NbBiO6,2.1946
mp-11659,BaTi(BO3)2,2.4012000000000002
mp-11706,Ho2HgO4,2.1233
mp-1173581,NaTiPO5,3.1919
mp-1173681,Na3GdBr6,2.3445
mp-1176346,Na5(WO3)14,0.0
mp-1179432,SmAs2Au,0.0
mp-1183301,Ba2ZnHg,0.0
mp-1183598,Ca2InHg,0.0
mp-1183832,CeAsRh,0.038499999999999
mp-1183846,DyLu3,0.0
mp-1184084,Er2AlZn,0.0
mp-1184156,Er3In,0.0
mp-1185305,LiGePt2,0.0
mp-1185306,LiCrRh2,0.0
mp-1186177,NaTbTl2,0.0
mp-1186440,Pm,0.0
mp-1186957,Sc2OsRh,0.0
mp-1186966,Sc2ZnIn,0.0
mp-1187125,Sr2TlIn,0.0
mp-1187194,Ta2TiRe,0.0
mp-1187195,Ta2VIr,0.0
mp-1187378,TbYbPd2,0.0
mp-1187499,TiMnIr2,0.0
mp-1187506,YbYZn2,0.0
mp-1187699,Tm3In,0.0
mp-1187708,Y2AlAg,0.0
mp-1187850,YHoMg2,0.0
mp-1187933,Yb2TlZn,0.0
mp-1189356,LuAgSe2,1.751199999999999
mp-1189442,Tm3Pt,0.0
mp-1190316,YbFe4(CuO4)3,0.0
mp-1190869,NaBH4,6.3946
mp-1190908,Ga9Rh2,0.0
mp-1191460,HfMn,0.0
mp-1191927,CeCrB4,0.0
mp-1191974,CaGe(PO4)2,3.9592
mp-1192238,Sm3TaO7,3.451899999999999
mp-1192922,Cs2HgBr4,2.5027
mp-1193055,Ca13Al14,0.0
mp-1193130,Na5Nd4Si4O17,0.377299999999999
mp-1194203,Sr2SnO4,2.682599999999999
mp-1195396,Nb4Ga5,0.0
mp-1195593,U(PO3)4,0.015200000000000002
mp-1195767,Ca5P3O13,0.5193000000000001
mp-1195805,Ga41Mo8,0.0
mp-1196526,Nb6I11,0.169099999999999
mp-1196712,Dy4GaSbS9,2.3389
mp-1197262,Sm4Ge9Ir13,0.0
mp-1197414,CaH4Se2O9,3.3394
mp-1197575,Ag2AsS2,0.5377000000000001
mp-1197755,Sc5Sb3,0.0
mp-1197783,ReBi3O8,2.679599999999999
mp-1197854,Bi14Mo5O36,2.643199999999999
mp-1198043,SrSc4Si5O17,4.3702
mp-1198078,Sm2ZrSe5,0.848299999999999
mp-1198572,YbAlB14,0.0
mp-1199328,Ba3U2As4O19,2.3224
mp-1199752,Cs4PbO3,1.682
mp-1200444,Ba8Si6Sn,0.258899999999999
mp-1200926,ScV(SeO4)2,2.7776
mp-1201076,Y4Ga21Ni10,0.0
mp-1201330,Te6MoI3,1.020099999999999
mp-1201689,LaNi3B,0.0
mp-1202342,CsCoF4,0.318
mp-1202522,Ca2As4(Xe3F14)3,2.4552
mp-1202711,BaSn2S5,1.5453000000000001
mp-1203147,Na3Gd(PO4)2,3.0354
mp-1203346,PW5O17,0.0
mp-1203636,BaPr2In2O7,2.4212
mp-1204344,Ga40CuMo8,0.0
mp-1205313,SmAgAs2,0.0
mp-1205384,LaTe2,0.0
mp-1205765,BaZnSb2,0.0
mp-1205955,K5Bi4,0.0
mp-1206068,InBi2S4Br,1.637
mp-1206152,Si(AgP)2,0.3033
mp-1206295,Dy2NiAs2,0.0
mp-1206465,Ce2In8Rh,0.0
mp-1207630,Yb(Sb3Os)4,0.0
mp-1207786,Y3Fe2Si3,0.0
mp-1208733,Sr2TaCoO6,1.5498999999999992
mp-1208736,Sr2ScBiO6,1.839
mp-1208748,Sr4Zr3O10,3.5797
mp-1208820,Sr2LuTaO6,3.4697
mp-1208852,Sn4Rh,0.0
mp-1208919,Sm2MgPtO6,2.08
mp-1209010,Sc2Be17,0.0
mp-1211195,LiBi(WO4)2,2.469999999999999
mp-1211732,KAgTeS3,1.699199999999999
mp-1211943,K3In(IO3)6,2.8394999999999992
mp-1213321,CsIn(MoO4)2,3.6893000000000002
mp-1215118,Ag16HgAs4S15,1.1099
mp-1215220,ZrMoW,0.0
mp-1215318,ZrAlCu,0.0
mp-1215344,Zr8AgPd3,0.0
mp-1215418,ZnIn3AsSe4,0.7915999999999991
mp-1215619,ZnCr4CuSe8,0.0
mp-1215728,YV2BiO8,2.9464
mp-1215779,Zn10Pd3,0.0
mp-1215992,YErAl6,0.0
mp-1216076,Zn5Cr20(GaSe10)4,0.0
mp-1216096,Y6Mg(SiS7)2,2.0455
mp-1216111,YEr2Al9,0.0
mp-1216705,V2Cu3NiO6,0.0
mp-1216723,U4B3C5,0.0
mp-1216870,TmTaTiO6,3.316799999999999
mp-1216989,V12Ag5O32,0.3991
mp-1217140,Ti3(SeS2)2,0.0
mp-1217143,Ti3AgS6,0.0
mp-1217829,TaTiSe4,0.0
mp-1217915,TaS2,0.0
mp-1218318,SrEu2BeO5,0.0
mp-1218424,Sr9CaSi6,0.0
mp-1218835,SnGeSe2,0.8162
mp-1219096,Sm8Sb3O8,0.0
mp-1220009,Sc11Ga9,0.0
mp-1221472,Na2MnVF7,2.0147
mp-1221772,MnCd4S5,0.6090999999999991
mp-1221836,Mn3Cd3(TeO6)2,0.48640000000000005
mp-1221933,Mn3Zn9(PO4)8,2.7827
mp-1221959,MgTi2MnO6,2.4934
mp-1222101,MgCd3(CO3)4,2.8977
mp-1222159,Mg4FeO5,3.5158
mp-1222222,Mn4Ga3Co8Ge,0.0
mp-1222820,Li2MgGeO4,3.8858
mp-1222899,LaCeB12,0.0
mp-1222952,LaCe(SiPd)4,0.0
mp-1223055,La4MgCr3O12,0.9380000000000001
mp-1223097,Li2HN,2.558799999999999
mp-1223166,La4Fe(NiO4)3,0.0
mp-1223245,LaCe4(SiRu)10,0.0
mp-1223322,KRbMnF6,3.375099999999999
mp-1223368,La2Mn(SeO)2,1.646
mp-1223773,K5Bi4,0.0
mp-1224209,HoTaTiO6,3.3329
mp-1224416,GdYAl4,0.0
mp-1224506,Hf(AlNi4)3,0.0
mp-1225222,Er(CuS)3,1.269199999999999
mp-1225374,Eu4BPd12,0.0
mp-1225546,ErGaAg,0.0
mp-1226324,Cr3Cu2NiSe8,0.0
mp-1226505,Cr11NiS16,0.0
mp-1226651,Cs3Sb5S9,0.6826000000000001
mp-1226865,Ce2Si2NiPt,0.0
mp-1226967,Cd2SnGeAs4,0.3532
mp-1227236,CaCd3O4,0.0459
mp-1227239,Ca5P3O13,0.5048
mp-1227456,Ca10Ge6F,0.0
mp-1227621,Ca4Bi6O13,1.7023000000000001
mp-1227631,Ca3CdO4,1.7349
mp-1227747,Ca10P6SO24,3.965
mp-1227791,Ca3Cd5(P2O7)4,3.2698
mp-1228095,Ba3Mo2(NO3)2,3.1923999999999992
mp-1228328,Ba4Sr(FeO3)5,0.0
mp-1228430,Ba3Ta4TiO15,2.1176
mp-1228457,Ba3BiPb2O9,0.0
mp-1228506,Al4VNi15,0.0
mp-1228888,AlGaP2,1.6638000000000002
mp-1229062,Al(V4Si)3,0.0
mp-1232339,LiC12,0.0
mp-12383,Sc2Te3,0.109099999999999
mp-1238875,TiCrAgS4,0.28340000000000004
mp-1239252,NbCr3(AgS4)2,0.0
mp-1245742,Sr11(CN5)2,0.5273
mp-1281224,MnO,1.2988
mp-12826,Sb8Te3,0.0
mp-1287949,Sr2FeWO6,2.4314
mp-12900,HoSi,0.0
mp-1298274,Mg4FeO5,3.2624
mp-13381,CeZnPd,0.0
mp-13911,Ca(ZnGe)2,0.0
mp-13929,Ba2SmReO6,0.0
mp-14019,NiB,0.0
mp-143,Tm,0.0
mp-14963,Pr3NbO7,2.6597
mp-15634,Cs2NaTiF6,0.0
mp-1569717,CaVP2O7,3.1335
mp-1573889,Na2FeO3,0.3607
mp-15761,Ba4Ti12O27,0.0
mp-162,Yb,0.000699999999999
mp-16435,Ba3Sc4(CuO4)3,0.5112999999999991
mp-16991,RbMoAsO6,2.4553000000000003
mp-17743,Sr3Sn2O7,2.2055
mp-17974,Na3Hg2,0.0
mp-1798,CeMg3,0.0
mp-18297,Ba3(GaN2)2,1.4942
mp-18456,LaCrO4,1.086999999999999
mp-18540,CsEr2Cu3S5,1.6344
mp-18898,Sr(NiO2)4,0.32770000000000005
mp-18977,Ba2CaWO6,3.199799999999999
mp-19001,SrMnO3,0.9319000000000001
mp-19741,CeNiC2,0.0
mp-19949,Sc2Cu2Ge4O13,0.159999999999999
mp-19988,SmGa5Co,0.0
mp-20108,CaIn4Pd,0.0
mp-20168,Cr2FeO4,0.0
mp-20170,CeCrSe3,0.0
mp-20244,ZrPbS3,1.247099999999999
mp-20618,Y2Co3Si5,0.0
mp-20991,BaPbO3,0.046199999999999006
mp-21015,HoCuSb2,0.0
mp-21470,Ca2MnGaO5,0.0
mp-21684,Ce5Cu19P12,0.0
mp-21739,ScCoGe2,0.0
mp-22200,LiMnFeF6,2.475
mp-22499,EuSnF7,0.043299999999999006
mp-22569,InPO4,2.7350000000000003
mp-22887,EuCl2,1.2161
mp-23514,BiSI,1.8825999999999992
mp-23980,Cs3H(SeO4)2,3.753
mp-26009,LiMo2P2O11,1.013399999999999
mp-26818,VP2O7,1.2872
mp-26980,MnPO4,0.460099999999999
mp-27503,LiV3O8,1.8523
mp-27776,Cd2AsCl2,1.0295
mp-27865,KMgCl3,4.9792000000000005
mp-28874,Hg2P3Br,1.0082
mp-28925,Ca4(PPd)5,0.0
mp-28945,Si2NiP3,0.0
mp-30474,Ca11Ga7,0.0
mp-30498,TbCd3,0.0
mp-30776,PrMg12,0.0
mp-30857,Zn12Pt7,0.0
mp-3197,TbAlPd,0.0
mp-35143,BaNbS3,0.0
mp-3736,ZrAlCu2,0.0
mp-3835,Ba(Mo3S4)2,0.0
mp-4513,Ho2Ga8Co,0.0
mp-4900,BaCeO3,2.2291
mp-505158,CsHoS2,2.2477
mp-505219,Rb2V4O9,0.09570000000000001
mp-505812,Co3Ag2(P2O7)2,2.0647
mp-51,Li,0.0
mp-510370,CsAlCuF6,0.013799999999999
mp-510725,SrV3O7,2.557
mp-531125,Ag7(PbO3)3,0.0
mp-540546,Er3Ni2,0.0
mp-540779,Rb2Cr2O7,2.7024
mp-540977,Bi5IO7,2.465
mp-541674,NaMo2(PO4)3,0.0
mp-542200,CdAg4Ge2S7,0.6799000000000001
mp-542488,MgCo,0.0
mp-545735,Ba2NdRuO6,0.141399999999999
mp-547271,ReO3,0.0
mp-554074,NbS2,0.0
mp-554109,CuSeO4,0.0
mp-554245,BaPb2IF5,3.3127
mp-554356,Na4Nb9(P2O13)3,0.0
mp-554705,Ni2P2O7,3.7913
mp-554940,LiCr3O8,0.6631
mp-555,Fe8N,0.0
mp-556343,SrGaBO4,3.8464
mp-556389,UTl2(TeO4)2,1.843499999999999
mp-557136,Cu3Se2(ClO3)2,0.0
mp-557235,Na3VB6O13,3.4297
mp-557415,P(W2O7)2,0.0
mp-559849,Ca(GaO2)2,2.985999999999999
mp-559906,U3O8,0.0041999999999990005
mp-560600,CsNiPdF5,0.6316
mp-560796,La4Mn(Cu3S5)2,1.1381000000000001
mp-560988,V3SiP5O19,2.0627
mp-561361,Hg2Mo2O7,2.2744
mp-561966,Rb2U(N2O7)2,1.7696
mp-567191,CaAlSi,0.0
mp-567201,PrCu6,0.0
mp-567404,YbIn4Pd,0.0
mp-567406,SmZn5,0.0
mp-567555,Pr5C2Cl9,1.635
mp-568403,Cs2SnAs2Se9,0.775
mp-568529,PrMg2Ni9,0.0
mp-568628,CsHg5Cl11,2.7167
mp-569032,PrAu6,0.0
mp-569247,Zr(FeSi)2,0.0
mp-569623,Nb(SeBr)2,1.05
mp-569687,CuHgSeCl,1.0995
mp-569978,Na2Ti3Cl8,0.44120000000000004
mp-570539,Rb3As7,1.5282
mp-570786,KNa2,0.0
mp-571215,Ca2Sb4Pd3,0.0
mp-571256,MoCl5,0.0
mp-571502,Ga(BiBr)4,1.5866
mp-571540,ZnCl2,4.018499999999999
mp-572332,Cs2Sb2OF10,3.8880999999999992
mp-581162,Li3VO4,3.9381
mp-5914,Li3BN2,3.443399999999999
mp-6146,LiNbZnO4,2.779099999999999
mp-621945,La2Ge2O7,3.9255
mp-623058,Ti2Ag2P2S11,0.670299999999999
mp-624397,SiC,2.054499999999999
mp-625788,La(HO)3,3.9861
mp-630329,PbSeO3,3.3187
mp-630403,Ca2MnGaO5,0.0
mp-631631,Mn5V2Pb3O16,0.7029000000000001
mp-634113,Cd2H2SO6,2.831899999999999
mp-637609,Ce12InPt7,0.0
mp-642,BaCu13,0.0
mp-642031,Sr11Al4In3,0.0
mp-642227,Sb8Pb5S17,1.4461
mp-642398,RbVSO6,1.8223
mp-6425,Li3In2(PO4)3,3.7687
mp-643246,YbMgNiH4,1.992099999999999
mp-645655,TeMo3Se7I6,1.0595
mp-6478,LiTaGeO5,3.7908
mp-650124,K2Rb2Re6S13,1.3686999999999991
mp-650601,K4Nb2Si8O23,3.7873
mp-650928,K3Nb7O19,2.112
mp-6674,LiLa2SbO6,3.8734
mp-671855,KNbCl6,1.9232
mp-672176,K3Sc(MoO4)3,3.918599999999999
mp-672208,Ce2Si2O7,0.049400000000000006
mp-674947,Zr2N2O,1.6647
mp-674968,Ag33(PbO3)14,0.0
mp-675093,Hf2N2O,2.053999999999999
mp-675142,Yb3DySb3,0.5315000000000001
mp-675690,Ba2PtAu,0.0
mp-675856,Yb(GdS2)2,1.408799999999999
mp-676694,LiNbO3,2.9835000000000003
mp-680639,Cu3Pd,0.0
mp-680711,Ca4Te5O14,2.8571
mp-684017,Y2Te4O11,3.3672
mp-695,TiCo2,0.0
mp-698,U3O8,0.0
mp-705013,CrBi8O15,1.9015
mp-706531,Ge3Ru2,0.36310000000000003
mp-706937,B9H11,3.319
mp-707440,Sr2Mg3H10,2.8908
mp-707473,InP(H2O3)2,3.6676
mp-714911,V3O5,1.0285
mp-721053,Hg3H4S2O11,1.7521
mp-733790,SiO2,5.586699999999999
mp-744430,Mn5P4(HO2)10,3.1874000000000002
mp-7507,Sr3Li2,0.0
mp-753306,YUO4,0.0
mp-754619,Li2CrP2O7,2.1978
mp-754758,Li2FeO2F,1.8387
mp-755007,CeOF,0.0
mp-755073,CrO,0.0
mp-755441,SrTaNO2,0.9819999999999991
mp-755695,Li2CoGeO4,2.296699999999999
mp-755703,LiSbO2,2.0515
mp-755887,La2S2O,2.4295
mp-756318,Al2CoCl8,0.3357
mp-756341,Cd(NiO2)2,0.1101
mp-757343,Ca4Bi6O13,1.730299999999999
mp-757528,Na11(WO3)13,0.888799999999999
mp-757612,Ag7(PbO3)3,0.0
mp-758654,Li3Fe2(PO4)3,2.423199999999999
mp-758934,Dy3Co29(Si2B5)2,0.0
mp-759172,TaSb3O8,1.939099999999999
mp-759244,Li12Nb14ZnO42,3.2272
mp-759957,V2F7,1.7368000000000001
mp-760087,Na5(WO3)13,0.0
mp-761183,LiMnF4,1.8855
mp-761275,LiVF5,1.9036
mp-767604,Li12Nb14ZnO42,3.2491
mp-769398,Na3IO,1.674599999999999
mp-769399,BaTa4O11,3.4624
mp-769522,Li13Mg(Ni6O13)2,0.0
mp-769545,Li10FeNi9O20,0.0
mp-770124,GdTa7O19,2.7068
mp-772282,Sb4I2O5,1.9316
mp-772657,Ta2WO8,1.7974999999999999
mp-772854,Li2NbV3O8,1.21
mp-775679,Li2Mn3CrO8,0.696299999999999
mp-775786,Hf2N2O,2.0242
mp-775802,Zr2N2O,1.7373999999999992
mp-7945,V3S,0.0
mp-82,Tl,0.0
mp-850814,NaSbO2,2.768499999999999
mp-861933,LiTmHg2,0.0
mp-863429,CuH10SeO9,0.147
mp-863730,KTl,0.11719999999999901
mp-864674,Ho2AlZn,0.0
mp-865128,NaSr2Tl,0.0
mp-865147,Be2CuRu,0.0
mp-865232,TlPd2Au,0.0
mp-865246,EuBi3,0.0
mp-865666,Li2TlAg,0.0
mp-866146,LiSm2Ir,0.0
mp-866158,YLuMg2,0.0
mp-866280,CaSmRh2,0.0
mp-867564,V3CoO8,1.8137
mp-867876,SmTlAg2,0.0
mp-8926,Li3BN2,3.5403000000000002
mp-9209,In2(SO4)3,3.7114000000000003
mp-9228,HgSeO3,2.5605
mp-971837,ZnCdTe2,1.4399
mp-972630,SmErZn2,0.0
mp-973064,LaH3,0.5655
mp-973141,ScCdCu2,0.0
mp-974788,Nd,0.0
mp-9757,BaSm2PtO5,2.7367
mp-976281,Li3Pd,0.0
mp-976411,Li,0.0
mp-978558,SmErRh2,0.0
mp-979057,Sm2ZnAg,0.0
mp-979437,YPaTc2,0.0
mp-980062,YbErZn2,0.0
mp-981314,YbLuPd2,0.0
mp-982443,NaCaPb2,0.0
mp-984315,Be3Ni,0.0
mp-998568,KAgBr3,0.0
mp-999318,NiBi,0.0
mvc-11241,VS2,0.0
mvc-679,YBi(WO4)2,1.779
mp-1013526,VS2,0.0
mp-1018752,LaTeCl,0.657099999999999
mp-1022965,K3V2(PO4)3,1.7942
mp-1062030,TiS2,0.0497
mp-10635,SnSb,0.0
mp-1072113,NbSe2,0.0
mp-1072712,NbS2,0.0
mp-1078776,InBiS3,1.401799999999999
mp-1078801,CsI,3.8345000000000002
mp-1079012,Cu2SnHgTe4,0.0
mp-1079048,V3PN,0.0
mp-1079072,Mg3In,0.0
mp-1079588,Nd2InNi2,0.0
mp-1080467,KCd4P3,0.10210000000000001
mp-1080730,Sr2ZrMnO6,1.5061
mp-1080760,ZrAlPt,0.0
mp-1092328,Sc3IrC4,0.0
mp-1096868,Ba7Sn3S13,2.0817
mp-1099073,Ti15NbO32,0.0
mp-1099685,BaSr7(FeO3)8,0.0
mp-11011,RbNdTe4,0.1778
mp-1102278,Tm2Ga8Co,0.0
mp-1103590,MgSe2,1.9935
mp-1103938,Sc(FeSn)6,0.0
mp-1104171,Yb(GaSe2)2,1.6244
mp-1104800,Sm3Pt4,0.0
mp-1105117,Ni3Sb4(OF)6,3.3229
mp-1105126,SrMn7O12,0.0
mp-1105178,Er2Sn5,0.0
mp-1105790,Ba2ErGaSe5,1.7266
mp-1106079,Tb2Co3Si5,0.0
mp-1113725,Rb2ErAgCl6,3.742899999999999
mp-112,Y,0.0
mp-1124,MgZn2,0.0
mp-1147666,K2Zn3S4,2.4299
mp-1176491,MgSnO3,2.563099999999999
mp-1178161,HoCuO2,2.5433
mp-1183148,AlGaCo2,0.0
mp-1183155,Al2NiOs,0.0
mp-1183218,AlGaRu2,0.0
mp-1183330,Ba3Sr,0.0
mp-1183423,Be3Co,0.0
mp-1183508,CaEuCd2,0.0
mp-1183528,Ca(GePt)2,0.0
mp-1183592,CaYbPd2,0.0
mp-1183618,CaGdCd2,0.0
mp-1183777,CoSn3,0.0
mp-1183831,DyLuRh2,0.0
mp-1184001,GaCu3,0.0
mp-1184046,CuCl,0.5736
mp-1184075,Er2AgHg,0.0
mp-1184388,Gd2ZnGa,0.0
mp-1184398,Cs3Mo2BrO7,2.8777
mp-1184588,Hf2MoPt,0.0
mp-1184723,HfZr3,0.0
mp-1185194,La2TlIn,0.0
mp-1185458,LiSm2Al,0.0
mp-1186303,NdCd3,0.0
mp-1186427,Pd,0.0
mp-1186609,PmMgTl2,0.0
mp-1186697,Pr2TlIn,0.0
mp-1186945,Sc2CuNi,0.0
mp-1186954,Sc2IrOs,0.0
mp-1187429,Ti2FeCo,0.0
mp-1187942,YbAgHg2,0.0
mp-1188870,PrZn3,0.0
mp-1189186,Ta2B2Os,0.0
mp-1189367,Nd(P3Ru)4,0.0
mp-1189497,La3Ni,0.0
mp-1189572,As2S3,2.001
mp-1190500,Na2TeSe3,1.2319
mp-1190785,CsDy2Cu3S5,1.5886
mp-1190931,NaFe(MoO4)2,2.1242
mp-1191426,Rb2U(PtSe2)3,0.0
mp-1192275,KEr2Cu3Se5,1.269299999999999
mp-1193756,Te7IrCl7,1.4028
mp-1193804,Pr3(GaNi)2,0.0
mp-1193838,Te8IrI5,1.165499999999999
mp-1193907,SrIrO3,0.0
mp-1194175,CsHgBr3,1.9018000000000002
mp-1194715,As2O3,3.6389
mp-1194787,Cd2B6PbO12,3.5829
mp-1194954,NaNb2H7O9,3.1469
mp-1194999,NaCo2As3O10,1.1965
mp-1195807,TiP2(HO4)2,2.7065
mp-1195871,VH6SO8,3.0556
mp-1196378,VH12SO11,3.0562
mp-1196425,Na2ZnB6O11,4.9155000000000015
mp-1197152,NdTmS3,0.6306
mp-1197229,Er11(Ni10C)6,0.0
mp-1199066,Eu4B4O11F2,0.0
mp-1199885,Li12Mo5O17,1.311799999999999
mp-1200112,Sr3TeO6,3.0092
mp-1200278,SnH7Cl3O4,3.2074
mp-1200516,In2Cu3(SeO3)6,0.143299999999999
mp-1200571,LaErS3,0.6519
mp-1201237,DyGa3,0.0
mp-1201249,MnFe2Pb8F24,2.1923
mp-1201552,Ga2Cu(SeO3)4,0.109599999999999
mp-1202200,ScV(SeO4)2,2.6551
mp-1202624,Ca5P3O13,0.5182
mp-1203069,WO3,1.6312
mp-1203163,GdV(SeO4)2,2.025699999999999
mp-1203422,Na2Cd11,0.0
mp-1205743,NaSr2IO6,2.4173999999999998
mp-1205777,Ho2CoSi2,0.0
mp-1205933,Sm2CdAu2,0.0
mp-1206420,Nd(ZnSi)2,0.0
mp-1206668,DyNiAs,0.0
mp-1206993,Nd(AlSi)2,0.0
mp-1207419,Zr3Bi5,0.0
mp-1207919,UGeI6,0.07310000000000001
mp-1208390,Ta6Bi2O19,0.5318
mp-1208407,Tb5SbPt2,0.0
mp-1208482,U6Al43V4,0.0
mp-1208682,SmCu5Sn,0.0
mp-1208721,Sr4CaSi3,0.0
mp-1208742,Sr4Mn3BO10,1.275799999999999
mp-1209344,PrSi3N5,3.440399999999999
mp-1209435,RbMo3(PO7)2,2.1273
mp-1209849,NdP2,0.0
mp-1209933,Nd9Ga4,0.0
mp-1209955,Nd2SiS5,2.4304
mp-1210623,MgGaBO4,3.112
mp-1210776,Nd5Ti5O17,0.0
mp-1210873,MnAlBiO5,0.27090000000000003
mp-1211118,Na3La(AsO4)2,3.6521
mp-1212052,In2Hg5Te8,0.0
mp-1212140,K2Er2(PO4)3,0.0349
mp-1212237,Hg3S2BrCl,1.6393