material_id,pretty_formula,band_gap
mp-18335,Ba2Ge2Se5,1.2916
mp-18808,LuMnO3,0.0
mp-18832,K2VO2F3,2.9955
mp-18940,Sr2NiMoO6,2.323299999999999
mp-19256,Er2Mn2O7,1.0707
mp-19331,MnNiO3,0.0
mp-19362,KFe(MoO4)2,2.4118
mp-19480,SmTl(MoO4)2,3.4447
mp-19712,PrAgPb,0.0
mp-19973,LaCoGe3,0.0
mp-20109,Th2NiB10,0.0
mp-2011,UP,0.0
mp-20220,CaInRh,0.0
mp-20298,SmIn,0.0
mp-20335,MnNbP,0.0
mp-20645,TbSiRu,0.0
mp-20665,CeInCu,0.0
mp-2088,CeAl2,0.0
mp-20992,Ce3InC,0.0
mp-2134,ErAl3,0.0
mp-21503,YMgIn,0.0
mp-21573,Ni21(SnB3)2,0.0
mp-2199,Fe3Si,0.0
mp-2215,ThHg2,0.0
mp-22156,Hf2InC,0.0
mp-22258,HfSiMo,0.0
mp-22319,UB12,0.0
mp-22335,GdB2Ru3,0.0
mp-22663,Rb2LiFeF6,3.6728
mp-22709,TaNiB2,0.0
mp-22795,Pb2Au,0.0
mp-22892,RuBr3,0.0
mp-23129,Ba2Cu3(BrO2)2,0.0
mp-23749,VH12(ClO2)3,2.3138
mp-2426,LiAg,0.0
mp-25250,MoP2O7,1.9849999999999999
mp-2719,DyB4,0.0
mp-27514,NaFeCl4,0.2267
mp-28066,ThBrN,2.643399999999999
mp-28392,Sr5(AlSb3)2,0.7905999999999991
mp-28870,PRhO4,1.017199999999999
mp-29005,U(Cr3P2)2,0.0
mp-29090,Rb4Au6S5,1.698
mp-29457,Ba2Cu5F14,0.0
mp-29589,Ta3(Se4Br3)2,0.0
mp-2988,Li2GaRh,0.0
mp-29932,Zr5P7Pd9,0.0
mp-30312,Ca2SiIr2,0.0
mp-30356,SrAg2,0.0
mp-30408,MgAu3,0.0
mp-30417,SmAu3,0.0
mp-30472,Ca2GaCu2,0.0
mp-30555,TaGaCo2,0.0
mp-30579,ErCu5,0.0
mp-30639,Th2Fe7,0.0
mp-30667,Sr8Ga7,0.0
mp-30866,Rh3W,0.0
mp-30886,YZn12,0.0
mp-30893,Sr4Bi3,0.0
mp-30973,Ni3(BiSe)2,0.0
mp-31029,Nd2Ni5B4,0.0
mp-3129,ScSi3Ni,0.0
mp-31324,Li2In,0.0
mp-3271,Ti3AlC,0.0
mp-32887,HfTe2,0.0
mp-3603,Ce3(BN2)2,0.0
mp-4064,Ca(NiP)2,0.0
mp-4071,Er2(NiB2)3,0.0
mp-4171,DySi2Ni,0.0
mp-4230,Sc3TlC,0.119399999999999
mp-429,ZnNi,0.0
mp-4441,Ca(CuGe)2,0.0
mp-450,NbB2,0.0
mp-4596,Sr2RuO4,0.0
mp-504591,PbWO4,3.07
mp-504649,RbCr2FeO8,2.0017
mp-504740,Eu(Al4Fe)2,0.0
mp-504968,RbFeCl4,0.049300000000000004
mp-504969,Ni3(AsO4)2,2.1524
mp-505133,Ta4Co2PdSe12,0.0
mp-5063,YAl3Ni2,0.0
mp-510376,CeBRh3,0.0
mp-5274,ThTi2O6,3.0087
mp-532094,Al2CoO4,0.0
mp-5321,Ho7Co6Sn23,0.0
mp-540830,OsF5,0.7152000000000001
mp-541341,PtF5,0.0
mp-541429,BaEu2CoO5,0.0
mp-541818,Rb4(BSe)9,2.1943
mp-542151,V2Ni3O8,0.0
mp-542501,Rb2U3(TeO7)2,1.857399999999999
mp-545598,UCdO4,1.9685000000000001
mp-551456,Ba2CuClO2,2.310699999999999
mp-552992,DyBi2BrO4,1.399299999999999
mp-553242,NdBi2BrO4,1.294
mp-553895,SrV4(Bi3O10)2,2.9157
mp-554340,CrF2,0.0
mp-555063,Nd2As4O9,3.342099999999999
mp-555605,KMnPO4,1.3082
mp-556463,KGe2BO6,3.5216000000000003
mp-557628,AsS(IF3)2,1.197
mp-557836,Na5B2P3O13,5.078699999999999
mp-558216,K2Te(WO4)3,2.8106
mp-558330,IClOF,2.0482
mp-559311,RbMnVO4,2.7323
mp-559602,AgSb(S8F3)2,2.7457000000000003
mp-560300,Nd3CuSnS7,1.8078
mp-560736,K3V3(BiO6)2,2.91
mp-561093,Rb2Cr2O7,2.7864
mp-561318,Ba2AlCu2F11,0.5734
mp-561778,CsLiCrO4,3.0587
mp-567518,Ba14MnBi11,0.0
mp-567612,ScOs2,0.0
mp-567940,RbPr6(CI6)2,0.1976
mp-568247,TmAu3,0.0
mp-568423,AlPI8,1.426799999999999
mp-568430,BaRh2,0.0
mp-568687,TbGa2Co3,0.0
mp-569373,Li8Zn2Ge3,0.0
mp-569807,RbTiBr3,0.0
mp-570394,PrNiSb3,0.0
mp-570902,Pr6RuBr10,0.2076
mp-571150,Cs2Zr7CI18,0.14199999999999902
mp-571379,InGa2Cl7,3.8337
mp-573369,Cs3Nd(MoO4)3,3.7419000000000002
mp-573541,Sm3(AlNi3)2,0.0
mp-573702,CsTlBr4,1.9743
mp-580357,Cu3Pd,0.0
mp-581345,Nd2Ge2O7,3.4278
mp-582278,Tm4InRh,0.0
mp-582367,EuNi5P3,0.0
mp-607267,KPb2Cl5,3.6184000000000003
mp-6078,Na2Cd3Si3O10,0.004599999999999001
mp-621362,NdInAu,0.0
mp-628665,AlBiTeCl4,2.1035
mp-632693,Zr5(In2Rh)2,0.0
mp-638521,Er5Al3Ni3Ge4,0.0
mp-654335,CsK5Ru2O9,0.19710000000000003
mp-662590,U5(B12Mo5)2,0.0
mp-6638,Nd2Fe2Si2C,0.0
mp-675143,Eu(GdS2)2,0.24129999999999902
mp-676409,EuPaO4,0.0
mp-680237,K10Th3(P5S18)2,2.443699999999999
mp-680706,Y13Sn31Pd40,0.0
mp-6825,Ho2Si4CN6,3.2076000000000002
mp-683941,Nb14S5,0.0
mp-685142,Co7(SbO6)2,0.6821
mp-697331,Mg2NiH4,1.6393
mp-698101,U(HO)8,2.1276
mp-707866,SrZnH6O5,3.6445
mp-7348,Sr(BRh)2,0.0
mp-7431,Sr(ZnSb)2,0.0
mp-752443,Te(S2O7)2,3.3378
mp-752936,Li2MnF6,2.977
mp-753721,GdOF,3.3747
mp-753993,NbVO5,1.8923
mp-754110,SmAgO2,2.5700000000000003
mp-754674,Lu(CuO2)2,0.0
mp-756510,K4TiO4,3.1491
mp-766504,Te2(PO4)3,0.0
mp-769366,Nd3SbO7,2.6267
mp-771649,Ti2V(PO4)3,0.0787
mp-776093,CsAsO3,2.6313999999999993
mp-7788,Er2Co12P7,0.0
mp-861592,PuAu3,0.0
mp-861663,LiRh2Pb,0.0
mp-861900,LiGaAu2,0.0
mp-861940,Ca2CdSn,0.0
mp-862663,LaPbAu2,0.0
mp-862667,LiAc2Ge,0.0
mp-862695,Al2CoRu,0.0
mp-862921,PmInRh2,0.0
mp-862963,PmSnPd2,0.0
mp-863669,Pm2CuPt,0.0
mp-864839,Zn2PdRh,0.0
mp-864876,TbInRh2,0.0
mp-865088,MnGaIr2,0.0
mp-865378,LuSnRh2,0.0
mp-865434,LuZrRu2,0.0
mp-865572,CeAu3,0.0
mp-865795,LiSc2Ru,0.0
mp-865985,CdPd3,0.0
mp-866015,CaPrZn2,0.0
mp-866087,MgSiRh2,0.0
mp-866181,Li2NdIn,0.0
mp-866695,ReTeSeCl4,2.3117
mp-867110,Sc2CoOs,0.0
mp-867327,Hf2TcRu,0.0
mp-867352,TcRh3,0.0
mp-868003,LaInAu2,0.0
mp-890,NdIr2,0.0
mp-8901,Rb2VAgS4,1.354
mp-8998,TaNiTe5,0.0
mp-9037,CsPrS2,2.2758000000000003
mp-9615,LiTiS2,0.0
mp-973951,Lu2CuRh,0.0
mp-975237,Rb(TeMo)3,0.2053
mp-976368,NdAlPd,0.0
mp-9776,YbAgGe,0.0
mp-978084,PrVGe3,0.0
mp-978951,SmAl,0.0
mp-979962,AcYbCd2,0.0
mp-980426,TmAlAg2,0.0
mp-985556,CdNi,0.0
mp-989512,LiTl2InCl6,2.8729
mp-997095,NiAuO2,0.0
mp-999127,NaTbSe2,1.9026
mp-999132,SmTlTe2,0.833499999999999
mp-9994,Ho11Ge10,0.0
mvc-12912,Y2Cr3O12,2.0049
mp-1006885,KNdS2,2.3231
mp-1016107,Hf6Zn6N,0.0
mp-1017627,Lu3AlN,0.0
mp-1018029,CuPd,0.0
mp-10181,LiSiNi2,0.0
mp-1018103,ZrAu2,0.0
mp-1018124,Ti2Rh,0.0
mp-1018166,AlTc2,0.0
mp-1018652,KCdSb,0.0
mp-1018791,LiY(CuP)2,0.0
mp-1018954,PuSe2,0.0
mp-1024994,HoCu4Au,0.0
mp-1025029,PrHSe,1.9162000000000001
mp-1025238,Tm(TiGa2)2,0.0
mp-1025371,CdPd5Se,0.0
mp-10366,Nb2Co3Si,0.0
mp-10469,NbSiPt,0.0
mp-10543,K3SbO4,1.8606
mp-10569,YbSiIr,0.0
mp-1066781,BrCl,1.8328
mp-1068239,SrGe3Pt,0.0
mp-10697,Sr(GeRh)2,0.0
mp-1070264,La2Ni2I,0.0
mp-1070507,Lu2AlNi2,0.0
mp-10712,ScRh3C,0.0
mp-1071720,ScZnPd,0.0
mp-1071731,HoSiNi4,0.0
mp-10736,Ba3N,0.0
mp-1077905,InRh3PbS2,0.0
mp-1078248,Gd2Cr2C3,0.0
mp-1078358,LiOsO3,0.0
mp-1078504,YbIn2Pt,0.0
mp-1078626,TbSnPt2,0.0
mp-1078777,U2TlSe6,0.0
mp-1078787,Sm(AlAu)2,0.0
mp-1078902,ThAlPt,0.0
mp-1079075,YGa2Pd,0.0
mp-1079166,Tb(GePt)2,0.0
mp-1079627,PrAlH6,2.452899999999999
mp-1079682,CeRhPb,0.0
mp-1079837,Gd(BOs)2,0.0
mp-1079874,ErSnPd,0.0
mp-1079959,Th(GeIr)2,0.0
mp-1080001,ZrGa3,0.0
mp-1080428,NbBr4,0.8733000000000001
mp-1080672,Th(BRu)2,0.0
mp-1080794,TbPRu2C,0.0
mp-10835,RbSm2CuS4,1.0894
mp-10860,CeNi2B2C,0.0
mp-1091393,PuGaNi,0.0
mp-1095559,YbNi3,0.0
mp-1095658,Tb2Au,0.0
mp-1102307,Zr2V3Ru,0.0
mp-1102457,ErAlPt,0.0
mp-1102521,PrGaPd,0.0
mp-1102795,ErZnPt,0.0
mp-1102869,ZrSiIr,0.0
mp-1102914,Ba2Eu3Si7,0.0
mp-1103035,ErGaRh,0.0
mp-1103143,SmAsPt,0.0
mp-11034,PrAl7Au3,0.0
mp-1103788,Sr(NiP2)2,0.0
mp-1104821,Pr5Co2,0.0
mp-1105615,Dy3Ir,0.0
mp-1105798,Sm(Co2B)6,0.0
mp-1105912,Ce2AlGe6,0.0
mp-1106158,DyGePd2,0.0
mp-11081,CeSnAu,0.0
mp-1112117,Cs2RbScI6,2.4133
mp-1112992,Cs2NaCeF6,0.45730000000000004
mp-11243,ErAu,0.0
mp-1144,ErP,0.0
mp-1183461,Ca2TlZn,0.0
mp-1183920,CsPaO3,3.0169
mp-1184323,ErPaOs2,0.0
mp-1185020,LaHoTl2,0.0
mp-1185329,LiAcRh2,0.3522
mp-1185358,LiMgCd2,0.0
mp-1185642,Mg149Zn,0.5779999999999991
mp-1186005,MnZnNi2,0.0
mp-1186271,NaMg149,0.547199999999999
mp-1186359,NdDyIn2,0.0
mp-1186374,Os3W,0.0
mp-1186456,Pm2CoNi,0.0
mp-1186915,ReTc,0.0
mp-1187217,SrPmPt2,0.0
mp-1187346,TbHoIn2,0.0
mp-1187504,YbSmAu2,0.0
mp-1188021,ZrGaRh2,0.0
mp-1188158,YSiPt2,0.0
mp-1188208,Zr5CuSb3,0.0
mp-1188730,Pr(HoS2)3,1.021
mp-1188755,NdAlPd2,0.0
mp-1188811,Lu4Ge6Os7,0.0
mp-1189270,LuB2Os,0.0
mp-1189350,La5AsPb3,0.0
mp-1189874,Sm5Sn3,0.0
mp-1190234,Er8In3Co,0.059699999999999004
mp-1190335,BaCdAs2O7,2.5644
mp-1190791,Dy2Fe12P7,0.0
mp-1191596,ErPS,0.5863
mp-1191681,Eu2Co12P7,0.0
mp-1192030,CoH2Cl2O,0.8130000000000001
mp-1192085,Cs2Cu2Sb2Se5,0.8208000000000001
mp-1192111,LiEr(WO4)2,3.8332
mp-1193919,Sb3Au2Xe2F19,0.8616
mp-1193929,Sr4Ru6ClO18,0.0
mp-1194233,LaNi9Ge4,0.0
mp-1194314,Sr(HoS2)2,1.8181
mp-1194900,K8NbSnAs5,1.2448000000000001
mp-1195305,K4Ge(PS3)4,2.1283
mp-1195598,BaEr4Si5O17,4.7768000000000015
mp-1195624,Ba3Sb2S7,1.962899999999999
mp-1196057,BaMn2Si2O7,2.6473
mp-1197758,Tm(FeGe)6,0.0
mp-1197960,Bi2S2O9,3.520299999999999
mp-1197988,Rb8Zr(MoO4)6,3.8591
mp-1198481,KAsW2O9,2.3926
mp-1198991,Rb3H12N5,2.0756
mp-1199023,Dy2ZrS5,1.224899999999999
mp-1199723,Ce4In21Pd10,0.0
mp-1200496,Ba3B(BrO)3,3.7516
mp-1200608,SrAlF5,7.1404
mp-1200892,BaSm2Sc2O7,3.534
mp-1200949,Ce2Sb4Rh3,0.0
mp-1201591,LaCd11,0.0
mp-1202831,ScGe2Os,0.0
mp-1203178,Tb4Ga21Ni10,0.0
mp-1203469,In2Te9RuCl8,1.309499999999999
mp-1204243,Rb4Te8O23,1.2387000000000001
mp-1204625,PrCo5P3,0.0
mp-1205583,UMn2SiC,0.0
mp-1206447,Dy2MgNi2,0.0
mp-1206799,Ba(GaH)2,0.0
mp-1206990,Sm3SnN,0.0
mp-1207222,Rb2VCl6,0.0
mp-1207584,Yb5P7Pd9,0.0
mp-1207753,Y5BiPd2,0.0
mp-1207780,Y3Rh,0.0
mp-1208135,Tm12Fe2Pb3,0.0
mp-1208369,TbPtF7,2.1725
mp-1208560,TaTlCl6,2.7096999999999998
mp-1208838,SmSbPd,0.0
mp-1208946,Sr2FeIrO6,0.0
mp-1209254,RbY(MoO4)2,3.6169000000000002
mp-1209362,RbGd2Cl7,2.6207000000000003
mp-1209378,Pr4OsI5,0.0
mp-1209871,Nd(Al5Os)2,0.0
mp-1209907,Nd2Si5Rh3,0.0
mp-12101,Lu(SiOs)2,0.0
mp-1210229,Nb3In2Cl9,0.9767999999999991
mp-1210240,Rb6V6P6O31,0.986699999999999
mp-1210398,NiAg(PO3)3,3.207899999999999
mp-1210662,Lu4CdNi,0.039900000000000005
mp-1210990,Lu3(P3Pd10)2,0.0
mp-1211408,Lu(Al5Re)2,0.0
mp-1211764,K3Gd(BO3)2,2.696
mp-1212091,HoAsSe,0.2179
mp-1212101,HoSbIr,0.0
mp-1212357,Ho2(Al3Ir)3,0.0
mp-1212509,Ho12Ni6Pb,0.0
mp-1212837,Eu2Zn2CuP3,0.0
mp-1213022,ErRhO3,0.9962000000000001
mp-1213025,ErSbRh,0.0
mp-1213312,CsEu(WO4)2,0.0
mp-1213326,CsTm(NbBr3)6,0.9402
mp-1213625,La23Cd4Ni7,0.0
mp-1213725,Cs3ReO5,2.0933
mp-1214391,BaNpO4,0.5113000000000001
mp-1214646,Ba2NaUO6,0.0
mp-1215390,Zr4Br4O,0.005600000000000001
mp-1215592,Zr2CN,0.0
mp-1215741,Zn2Cr3FeO8,0.0
mp-1216388,Zr18Co5Sn4,0.0
mp-1217858,TaTiTlO5,2.594299999999999
mp-1217989,Ta4CoNi,0.0
mp-1217995,TaAlZn,0.0
mp-1218451,Sr3PrMn2O8,0.0
mp-1218650,Sr3Fe2MoO9,0.701299999999999
mp-1219184,Sm2CdSb4,0.0
mp-1219892,Pr6Ge3Se14,1.2074
mp-1220059,Pr6Mn(GeS7)2,0.5845
mp-1220256,Nd6Ge3S14,1.322899999999999
mp-1220323,NbTc,0.0
mp-1220339,Nd2CdSb4,0.0
mp-1220522,NbVCo,0.0
mp-1220699,Nd9Al5S21,2.3879
mp-1220968,NaNd2Se3,0.0
mp-1221737,MnFe3P2,0.0
mp-1221936,MgMnTe2,0.8239000000000001
mp-1222098,Mn3Cr8CuS16,0.0
mp-1222233,Mn23As16,0.0
mp-1222898,LaAlCu4,0.0
mp-1223191,La6Mn(SiS7)2,1.1206
mp-1223506,KBa2Bi2O7,0.0
mp-1224004,Ho2Ga3Cu,0.0
mp-1224251,K3Er7S12,1.8296999999999999
mp-1225072,Er2CuNi,0.0
mp-1225400,Dy6Al2SiS14,2.4913
mp-1225518,Er2SbO2,0.0
mp-1225861,Dy14Au51,0.0
mp-1225972,Er8Mn3Mo5O28,0.631699999999999
mp-1226571,CeSm3S4,0.0
mp-1226804,Ce3GeS2,0.0
mp-1227077,Cd43Pd8,0.0
mp-1228194,Al6CoCu3,0.0
mp-1228599,Al3BC3,1.819
mp-1228976,Ba(BiS2)2,1.2535
mp-1229136,Ba20Ru11PtO48,0.0
mp-1229253,CaCe4Si3O13,0.16080000000000003
mp-1229333,Ba20Ga5Ru7O44,0.0
mp-12374,CeSnRh,0.0
mp-12521,SrNi3Ge2,0.0
mp-12684,LaAl,0.0
mp-1314,Li12Si7,0.0
mp-13189,SrLuCuS3,1.382099999999999
mp-13627,Y3ReO8,1.6995
mp-13962,HfSiSe,0.0
mp-13973,Gd2SeO2,1.3128
mp-1451,NbNi3,0.0
mp-1564,NaTl,0.0
mp-1573681,MgFe(GeO3)2,1.3818000000000001
mp-16116,RbSm2CuSe4,0.9670999999999991
mp-16251,Yb(SiAu)2,0.0
mp-16266,CaZnSi,0.0
mp-16371,ThGe2,0.0
mp-16491,SrAl9Co2,0.0
mp-16502,Ho2Al,0.0
mp-1652,ZnPd,0.0
mp-16830,Sr(Ni2B)6,0.0
mp-17118,Y3Ge5,0.0
mp-17361,Cs2WS4,2.1759
mp-1786,Ti3Au,0.0
mp-1800,Nd2C3,0.0
mp-18038,KBaFeO3,0.5704
mp-18421,Ba2Ga2S5,2.7735000000000003
mp-18649,MnGeRh,0.0
mp-18720,Mn2CdO4,0.0
mp-19092,CoWO4,2.2831
mp-19350,LaVO3,0.0
mp-19891,Pu2C3,0.0
mp-20014,AlVMoO7,2.3304
mp-20182,GdRh3C,0.0
mp-20264,Tb(FeGe)2,0.0
mp-20492,ScSiRh,0.0
mp-20568,LaAgGe,0.0
mp-20616,CeNiGe,0.0
mp-20733,ErSiIr,0.0
mp-208,GeIr,0.0
mp-20836,Nd(NiAs)2,0.0
mp-21000,Dy(MnGe)2,0.0
mp-21033,La(GePd)2,0.0
mp-21177,TmIn3,0.0
mp-21232,TmInRh,0.0
mp-21238,ThSi,0.0
mp-21336,TaFeP,0.0
mp-21449,NbCoP,0.0
mp-21554,P3Pb5O12F,3.7224999999999993
mp-21670,ThInCu5,0.0
mp-22039,Dy3(CuGe)4,0.0
mp-22154,In2Au,0.0
mp-22372,Mn6Ni16P7,0.0
mp-22420,CuTeO4,0.0
mp-22426,ScSiNi,0.0
mp-22568,V3Ga,0.0
mp-22700,V3Se4,0.0
mp-23163,CsBi2,0.0
mp-23165,PtBr3,0.9388000000000001
mp-23897,Rb3H(SeO4)2,3.6441
mp-24215,ScH3Br3N,3.1668
mp-24723,TaH2,0.0
mp-2551,DyCo5,0.0
mp-2748,CeAs,0.0
mp-27731,HfH2,0.0
mp-27838,Na3Bi,0.0
mp-27848,TiIN,0.0148
mp-2811,MoN,0.0
mp-28161,Na3P6N11,3.8178
mp-28281,H4I3N,1.903899999999999
mp-29035,Sr(YS2)2,1.8129
mp-29058,V3(Bi3O8)2,2.2173
mp-2909,HoAlNi,0.0
mp-29142,Ho2Mo4O15,3.3285
mp-29153,Zr2NiP,0.0
mp-29198,Na5AuSe12,1.019199999999999
mp-29384,Rb3TlCl6,2.274
mp-2971,U(CrC)4,0.0
mp-29778,Nd4Ge7,0.0
mp-29908,Sr11(ReO6)4,0.0
mp-30149,K6Tl2Sb3,0.26370000000000005
mp-30343,InAg3,0.0
mp-30438,Be2Cr,0.0
mp-30445,ZrBe13,0.0
mp-30455,HoBiPt,0.0
mp-3055,NdB2Rh3,0.0
mp-30581,Hf2Cu,0.0
mp-30606,DyInPd2,0.0
mp-30659,YGa2Ni3,0.0
mp-30665,Ga17Rh10,0.0
mp-30738,LiIr3,0.0
mp-30969,Ho12Co7,0.0
mp-31020,AsI5F6,1.4406
mp-31089,Ho2Pd2Pb,0.0
mp-31198,Er3Ru2,0.0
mp-31285,Cs2PdSe8,1.1887
mp-31901,Mn4Nb2O9,0.015499999999999
mp-3462,TmSnAu,0.0
mp-3469,ZrNi2Sb,0.0
mp-3529,K3VS4,1.5900999999999992
mp-37614,Al2NiO4,3.2583
mp-38564,Ce(Mo3S4)2,0.2046
mp-4056,CaSc2O4,3.456199999999999
mp-4439,Pr(SiNi)2,0.0
mp-4450,UPS,0.0
mp-460,PrZn,0.0
mp-4877,CsNa2Si17,0.0
mp-4939,Dy(FeSi)2,0.0
mp-504636,K2MnO4,0.5023
mp-504701,CsTiF4,0.0
mp-505014,Cs4Sn2Te7,1.1412
mp-505055,Na3B5Pt9,0.0
mp-505465,As2Pb2O5,2.8936
mp-505713,CsTmZnSe3,2.1726
mp-530539,Sr4U2O9,0.00030000000000000003
mp-530714,Ba14AlSb11,0.524799999999999
mp-531826,Li2PtO3,1.9705
mp-540743,Th2Zn17,0.0
mp-540784,Rb2Ti6O13,2.6422
mp-541720,Ba3DyRu2O9,0.0
mp-542486,Sc3(Si2Ni)2,0.0
mp-544,Ti3Ir,0.0
mp-546898,Sr2Cu(BrO)2,0.0
mp-554429,Mn3Si(O2F)2,2.618799999999999
mp-554453,Cr2P2O7,2.2708999999999993
mp-554519,Gd4Ti(SeO)4,0.0024000000000000002
mp-555527,Sm3Si2S8Br,2.6731
mp-555776,K3Sc(MoO4)3,3.9435000000000002
mp-555862,CsZr(NO3)5,3.4444
mp-556369,CdHg2SeO6,1.1781
mp-556857,VCdO3,0.0
mp-556908,Nd5As4(ClO4)3,3.6757
mp-557180,CaAs2(XeF5)4,2.574699999999999
mp-5572,Ho2Te5O13,3.004
mp-558692,Sb2ClO2F11,1.862499999999999
mp-558697,Rb3U2Ge2O11,0.1749
mp-559134,Eu3(AsS4)2,0.24860000000000002
mp-559878,K2Na2IrO4,0.3405
mp-560032,NaNb2AsO8,2.6826
mp-560255,NbPCl8O,2.3872
mp-560257,Ca9Cr(PO4)7,2.889199999999999
mp-560997,KVF4,1.9296000000000002
mp-561194,La10S14O,1.940599999999999
mp-565597,Cu3P4S4I3,1.630199999999999
mp-567657,K(CuSe)2,0.0
mp-567926,B4Rh5,0.0
mp-568006,DyFe5,0.0
mp-568285,Np3As4,0.0
mp-568295,Pr8(BCl)7,0.0
mp-568672,YbGeIr,0.0
mp-568866,Na6ZnSn2,0.0
mp-569341,NdBPt2,0.0
mp-569386,P3NCl12,1.904999999999999
mp-569411,La3ScBi5,0.0
mp-569875,ScBRh3,0.0
mp-570053,Bi8AsAuCl9,1.3163
mp-570138,Tb2Al4NiGe2,0.0
mp-570188,ZrI3,0.197
mp-570272,Tb2Mg3Ni2,0.0
mp-570356,Ca5Ir,0.0
mp-570621,V2Ga8Cu3,0.0
mp-570713,TiAlPt,0.0
mp-570870,Hf5Sb9,0.0
mp-571107,Er4InRh,0.0
mp-571203,Sr(CoAs)2,0.0
mp-571212,Yb5Ag3,0.0
mp-571420,Ba(NiP2)2,0.0
mp-571617,Sr2LiInGe2,0.0
mp-578650,Na3Nb34Al2O64,0.0
mp-583184,Tl3Ag3(AsS3)2,1.5510000000000002
mp-5950,Cd2Os2O7,0.0
mp-5971,YBPt2,0.0
mp-601285,MnGaNi2,0.0
mp-610530,Gd(CoB)2,0.0
mp-621659,La2Ge5Ir3,0.0
mp-625403,Nd(HO)3,3.8984
mp-636368,Ga3Fe,0.5750000000000001
mp-636619,Gd2MnGa6,0.0
mp-637771,ZrInNi4,0.0
mp-650277,Pr6Si4Ni7,0.0
mp-652961,La3GaGe5O16,3.2544
mp-662527,Ce2Si2O7,0.10450000000000001
mp-672306,Ba6In5N,0.0
mp-672651,Zr6Ni16Ge7,0.0
mp-676666,Rb2CeO3,2.4265
mp-680170,Cs2Ti2S9,1.1626
mp-680761,Cd3(PO4)2,2.3911
mp-684036,Ba3Gd2(PS4)4,1.404399999999999
mp-685014,In2Br3,2.1268
mp-690161,Li9Mn20O40,0.575299999999999
mp-696088,Sb2H20(Cl4O3)3,1.7147000000000001
mp-703492,Zr3Zn3C,0.0
mp-768273,Gd3As5O12,2.3862
mp-769530,Li3Mn4(FeO6)2,0.39880000000000004
mp-770128,Cs6Ti2O7,3.333
mp-770767,SmCuO3,0.132499999999999
mp-770846,Ba3Sn2O7,1.6705
mp-771750,Sr(IO3)2,3.7019
mp-773785,K2TeO4,2.6294
mp-7759,BaSn3,0.0
mp-777682,Li2NbV3O8,1.4975
mp-778,Fe2P,0.0
mp-7810,UVC2,0.0
mp-8117,Rb(MoS)3,0.7143
mp-823,TiCo,0.0
mp-8475,ErCoC,0.0
mp-861656,Ti2CrIr,0.0
mp-861939,Ac3Sn,0.0
mp-862770,Tc3Ir,0.0
mp-862832,PaTlO3,2.918599999999999
mp-862918,PmHoMg2,0.0
mp-862968,PmTlTe2,0.140099999999999
mp-863651,Ho2CdIn,0.0
mp-863655,Pm2CdSn,0.0
mp-863670,Pm2CuRh,0.0
mp-863690,Ti2MnCo,0.0
mp-863715,Pm2IrAu,0.0
mp-863723,Ho2MgGe2,0.0
mp-864628,Pm2SnPd,0.0
mp-864671,HfAlRh2,0.0
mp-864717,PaCu2Sn,0.0
mp-864772,LiSc2Au,0.0
mp-864925,NdMgZn2,0.0
mp-864940,Mg2PtRh,0.0
mp-864966,MnSiRu2,0.0
mp-864969,Mg2PdRh,0.0
mp-865051,NaCa2Tl,0.0
mp-865096,NaHoTl2,0.0
mp-865102,NaLaTl2,0.0
mp-865167,Ca2CdPb,0.0
mp-865315,Lu2MgOs,0.0
mp-865334,Lu2NiOs,0.0
mp-865339,Tm2GaOs,0.0
mp-865500,Na2Hf2O5,2.0427
mp-865736,YbBiPd2,0.0
mp-865758,YbGeO3,1.0937000000000001
mp-865811,LaYbAg2,0.0
mp-866020,YbSmHg2,0.0
mp-866138,LuSbRu2,0.0
mp-867292,Ga2RuRh,0.0
mp-867345,TcIr3,0.0
mp-8683,K5As2Au,0.33939999999999904
mp-8772,ScB12,0.0
mp-8778,Sm2Au5F21,1.7616
mp-9379,Sr(SnAs)2,0.155899999999999
mp-9391,TaNi2Te3,0.0
mp-9473,Ba(NiP)2,0.0
mp-9498,Nd2C(NO)2,3.8392
mp-9698,Rb6AlSb3,0.28250000000000003
mp-971957,Tm3Pb,0.0
mp-972061,YbTlHg2,0.0
mp-973241,Sm3Ni7B2,0.0
mp-974358,Ir3Ru,0.0
mp-975531,RbCr5Te8,0.0
mp-976128,Hf5Sc,0.0
mp-977356,ZnGaIr2,0.0
mp-977585,Zr3Tl,0.0
mp-977588,LuNiSn,0.0
mp-978513,SmErMg2,0.0
mp-978547,SmLuIn2,0.0
mp-979434,DyYTl2,0.0
mp-980059,TbPmRh2,0.0
mp-980084,Th(CuSn)2,0.0
mp-9873,EuZnGe,0.0
mp-999339,NdNi,0.0
mp-1003635,NaMn16O32,0.0
mp-1005955,Tm3Ni7B2,0.0
mp-1017579,In2Au3,0.0
mp-1018160,PmN,0.0
mp-1018761,Li3CeSb2,0.0
mp-1025122,LuCu2,0.0
mp-1025123,UNi2B2C,0.0
mp-1025384,Pr2Re2Si2C,0.0
mp-1025458,SmAl2Ni,0.0
mp-1029338,LiV2N3,0.0
mp-104,Sb,0.0
mp-10530,Tm2AlSi2,0.0
mp-1066254,YAu,0.0
mp-1068286,Ca2CdPd2,0.0
mp-1069004,U2OsC2,0.0
mp-1072255,ScNi4Au,0.0
mp-1077201,UAsP,0.0
mp-10777,RbCeSe2,0.0926
mp-1078054,Sn2Rh3S2,0.0
mp-1078303,Ba2YOsO6,0.0727
mp-1078581,ThAlNi,0.0
mp-1078717,La(NiSn)2,0.0
mp-1078737,HoCoGe2,0.0
mp-1078991,ErTe3,0.0
mp-1079342,CeZnNi,0.0
mp-1079438,Ta2N,0.0
mp-1079700,Dy6CoTe2,0.0
mp-1079853,SrMg2Pd,0.0
mp-1079861,TmCoGe2,0.0
mp-1079862,SrTl2Pd,0.0
mp-1079936,TbCoGe2,0.0
mp-1080560,NdAlCu,0.0
mp-1080590,DyAu3,0.0
mp-1080605,MgGaAu,0.0
mp-1080771,NaCl7,0.5193000000000001
mp-10867,PrPPd,0.0
mp-1087497,V5Se4,0.0
mp-1087532,CsLuS2,2.3035
mp-1087547,EuCu,0.0
mp-10898,ScAlNi2,0.0
mp-1095289,LiCaAs,1.1092
mp-1095550,HoAsPt,0.0
mp-1095616,BaNdAgS3,1.6623
mp-1100765,Pm2GaAg,0.0
mp-1101953,HoOs2,0.0
mp-1102139,NdSb2,0.0
mp-1102452,ZrFeSi,0.0
mp-1102657,Y2Pt,0.0
mp-1103450,SmAlPt,0.0
mp-1104014,Mn2ZnTe4,0.0
mp-1104503,YGa3Ru,0.0
mp-1104669,Ca5Pd2,0.0
mp-1105213,ErTl(PSe3)2,1.4836
mp-1105861,Tm3Ge3Ru2,0.0
mp-1106061,Ca3Pd,0.0
mp-1106228,Tb7NiI12,0.028200000000000003
mp-1112663,Cs2LiYI6,3.0024
mp-1114486,RbInCl3,1.6885
mp-11266,BaCd2,0.0
mp-11471,ScHg,0.0
mp-1147626,K6ZnSe4,1.6625
mp-11665,Ce2(Zn2Ge)3,0.0
mp-11697,TaSb2,0.0
mp-1173104,TbPaO4,2.8111
mp-11740,KNdTe2,1.3249
mp-11764,HoSnPd,0.0
mp-1178212,FeSnO3,0.8561999999999991
mp-11806,LiMgSnPt,0.0
mp-11811,CaGaAu,0.0
mp-1181137,GdFe5,0.0
mp-1182716,Eu3O4,0.0
mp-1183042,ZrSiRu2,0.38970000000000105
mp-1183066,Ac2ZnAu,0.0
mp-1183809,Ce2HgPb,0.0
mp-1184158,DyTmRh2,0.0
mp-1184201,Cs2SbCl6,0.0
mp-1184448,Gd2TlHg,0.0
mp-1184586,Hf2CoOs,0.0
mp-1185069,LaLuTl2,0.0
mp-1185437,LiThHg2,0.0
mp-1185579,Mg149Hg,0.5682
mp-1185641,Mg149V,0.08070000000000001
mp-1185914,MgPaPt2,0.0
mp-1186506,Pm2ZnIn,0.0
mp-1186959,Sc2TlZn,0.0
mp-1187078,SmGdAg2,0.0
mp-1187206,Ta3W,0.0
mp-1187770,Y2TlIn,0.0
mp-1187853,UReB4,0.0
mp-1188002,Zr2TcOs,0.0
mp-1188003,Zr2TcRu,0.0
mp-1188109,Ho3In5,0.0
mp-1188721,IN4,0.0
mp-1188759,Tm4Ga12Pd,0.0
mp-1188862,La(HoS2)3,1.0735000000000001
mp-1189376,Ba2SmGaSe5,1.7065000000000001
mp-1189471,Tb2Sn5Rh3,0.0
mp-1189490,U4Ge6Os7,0.0
mp-1189800,Yb5Ir3,0.0
mp-1190089,CsHf2Br9,3.1447
mp-1190548,Na2U2O7,1.618799999999999
mp-1190662,Eu2MnSi2O7,0.0
mp-1190949,Ba2ZnGe2O7,3.1304
mp-1191003,Er3MnB7,0.0
mp-1191070,UCoB4,0.0
mp-1191488,Ba2Ge4Pd5,0.0
mp-1192306,K2U(PdS2)3,0.0
mp-1192434,NaYbSiO4,0.0
mp-1192551,Ce6Mg23Si,0.0
mp-1192706,Ta4Co4Si7,0.0
mp-1192784,Hf9CoW4,0.0
mp-1192960,Zr6Fe16Si7,0.0
mp-1193187,TaCoB,0.0
mp-1194570,TlBi(SO4)2,3.833699999999999
mp-1194904,CuHg(SeO3)2,0.748799999999999
mp-1194930,PrTlP2S7,2.4497
mp-1195013,Na2Pd(S4O13)2,1.5383