material_id,pretty_formula,band_gap
mp-1502,Al2Pt,0.0
mp-15186,Er(CuO2)2,0.0
mp-15577,Pr4Ga2O9,3.609199999999999
mp-1571,PrPd3,0.0
mp-1623,ErS,0.0
mp-16267,Dy2CdS4,1.329899999999999
mp-16380,Nd2Te3,0.023600000000000003
mp-16497,ScAlCu2,0.0
mp-16811,Ho2MoO6,2.1797
mp-16812,KVP2O7,2.0646
mp-17193,Ca3GeO,0.246
mp-173,MnAl6,0.0
mp-17349,Na3In2(PO4)3,3.217999999999999
mp-17646,Yb2WO6,0.0417
mp-18199,Sr3TaAs3O,1.287799999999999
mp-1820,YbS,2.444
mp-18373,ZnSe2O5,3.2813
mp-18464,Rb4GeO4,2.8746
mp-19401,CrPO4,2.6636
mp-19453,Te2MoO7,2.809999999999999
mp-19745,GdInIr,0.0
mp-20295,YbEuSi4N7,0.0
mp-20358,UInAu2,0.0
mp-20564,V2Pb3O8,3.0271
mp-20689,Nb3B2,0.0
mp-20843,Sr2InPd2,0.0
mp-20877,NbCoB2,0.0
mp-21188,CeNi,0.0
mp-21240,Gd(SiRh)2,0.0
mp-22120,YRh3C,0.0
mp-22517,EuYSi4N7,0.0
mp-22723,DyInIr,0.0
mp-2275,UF6,2.8009
mp-22785,SmMnB4,0.0
mp-23276,InCl,2.187699999999999
mp-23386,Sn2SI2,1.6167
mp-23410,Nb3Se12I,0.0742
mp-23481,Cs3Cu2I5,2.4429
mp-2350,LaS,0.0
mp-23968,NiH2SeO5,2.9949
mp-24288,LuH2,0.0
mp-2463,LuFe2,0.0
mp-2522,LuHg,0.0
mp-2634,NbN,0.0
mp-2662,MnP,0.0
mp-2705,VPt3,0.0
mp-27094,LiSn2(PO4)3,3.388899999999999
mp-2728,MnIr,0.0
mp-276,TbNi2,0.0
mp-27606,ZrAs2,0.0
mp-2786,Ca5Zn3,0.0
mp-27894,La2Re3B7,0.0
mp-27998,KNb3O8,2.5526
mp-28229,Bi4Te3,0.25570000000000004
mp-28308,Ta2NiS5,0.0
mp-28731,V6C5,0.0
mp-28746,Pr3RuI3,0.017599999999999002
mp-29374,KGaSb4,0.29189999999999905
mp-29450,CuSe3I,1.0589
mp-29546,Sr13(MgSi10)2,0.0361
mp-29593,Re2(PCl8)3,0.0044999999999990005
mp-29722,Ca11InSb9,0.8572999999999991
mp-29725,YBRh3,0.0
mp-30339,ErAg2,0.0
mp-30374,DyInAu2,0.0
mp-30392,Li2InAu,0.0
mp-30404,Li2SbAu,0.0
mp-30463,BiPd3,0.0
mp-30733,HoSnPt,0.0
mp-31078,CeSiRh2,0.0
mp-31138,MnPd3,0.0
mp-34141,Sr(LaS2)2,2.3513
mp-35249,Sm2Hf2O7,3.7274000000000003
mp-36508,SnHgF6,2.4327
mp-37,Th,0.0
mp-417,MnRh,0.0
mp-4676,La3(B3Ru4)2,0.0
mp-4725,Nd(GePd)2,0.0
mp-5050,Rb(OsO3)2,0.0
mp-505045,Na5(InTe3)2,0.8645
mp-505368,As2Pb3O8,3.3808
mp-505597,Tb(Ni2P)2,0.0
mp-510369,Ce5Pb3O,0.0
mp-510574,USb2Au,0.0
mp-5239,NdSiRu,0.0
mp-5387,YNbO4,3.5137
mp-541124,Y6Ni20P13,0.0
mp-541177,GdVO3,1.4497
mp-541916,Rb2Ag(AsSe2)3,1.3568
mp-542067,Rb4Ti3S14,1.2236
mp-5426,ErB3Mo,0.0
mp-546321,Ba2NdBiO6,1.871699999999999
mp-5466,YbNbO4,0.0
mp-5486,Ca(CuSi)2,0.0
mp-554994,Ta2Tl3Cu3S8,1.9486
mp-555095,Ba5Re3NO18,2.2999
mp-556067,SrFe2(P2O7)2,2.0754
mp-556092,Pr2Te4MoO14,3.2032
mp-556325,TeAs(ClF2)3,3.9703
mp-557276,Ca2VClO4,3.5728
mp-558402,Mn2PClO4,3.1253
mp-559059,K3Nd(AsS4)2,1.7035
mp-559692,Ta2Cd(P2O7)3,3.560699999999999
mp-5598,Sm2SO2,3.057099999999999
mp-560124,Sr9YbV7O28,0.0
mp-560362,W8O21,0.0
mp-560476,Rb3NaTiO4,3.2444
mp-561049,NaCe(PO3)4,0.31870000000000004
mp-561218,KP2Au5S8,0.0
mp-562854,CsNb2BiO7,2.4862
mp-567722,Ca7NbSi2N9,1.983899999999999
mp-567788,Sr14MnSb11,0.0
mp-567873,RbSmGeSe4,1.6205999999999992
mp-568191,SrLuCuSe3,1.1541000000000001
mp-568366,Tb4CdRh,0.0
mp-568539,LaInRh,0.0
mp-568574,LaGeI,0.0
mp-568623,Sc44Os7,0.0
mp-569188,La(AsRu)2,0.0
mp-569197,GdNiSb,0.0
mp-569204,Tl(CuTe)2,0.0
mp-569298,Ca(CoAs)2,0.0
mp-569480,URe2,0.0
mp-569905,NaLa6OsI12,0.35609999999999903
mp-570113,BiAu2,0.0
mp-570255,Pr(AlGa)2,0.0
mp-570278,Yb3Ge8,0.0
mp-570453,Ba4W(N2Cl)2,2.2076000000000002
mp-570692,In5B4Ir9,0.0
mp-570850,LiCa2InGe2,0.010900000000000002
mp-570863,CrCoPt2,0.0
mp-571405,NdTl,0.0
mp-571579,CdI2,2.4388
mp-573755,CsTeAu,1.297699999999999
mp-574070,Cs4Pb9,0.8239999999999991
mp-582799,EuAl4,0.0
mp-582929,K8In11,0.0
mp-601,PrP,0.0
mp-607725,Ce(PPt2)2,0.0
mp-608146,Gd2S3,0.45790000000000003
mp-617442,RbTa(CuTe2)2,1.218899999999999
mp-623092,Gd4Au2O9,1.8748999999999991
mp-6353,Y2Si4CN6,3.117
mp-637431,Eu2Ru2O7,0.0
mp-638100,CeTl2P2S7,0.23289999999999902
mp-6397,Na2Ca(SO4)2,5.4956
mp-640163,Co2W4C,0.0
mp-642238,Y6AgTe2,0.0
mp-644827,TePCl9,1.7979
mp-647205,Sc2(Ni7B2)3,0.0
mp-653429,Mn7FeCl3O10,1.0754
mp-669387,Sr2P6Rh7,0.0
mp-669393,Dy2Fe3Si5,0.0
mp-669594,Pr5Ga3,0.0
mp-676250,Bi2Te4Pb,0.515
mp-677,SrCd2,0.0
mp-6779,Ba2Pr(CuO2)4,0.0
mp-698032,Na3H7Ru,2.519
mp-705134,In2(MoO4)3,3.7072000000000003
mp-7072,Th(CoSi)2,0.0
mp-7243,LiSnPd2,0.0
mp-7276,ScUS3,0.0
mp-7353,Hf3Cu8,0.0
mp-753173,HoIO,3.4653
mp-753766,Ho6ReO12,0.061500000000000006
mp-754185,Y2MgNi2,0.0
mp-755865,TbNiO3,0.0
mp-757613,Li2Co3SbO8,0.736399999999999
mp-758742,KY(H2N)4,2.7030000000000003
mp-760267,Na5(NiO2)9,0.1995
mp-769014,Ho2(SeO3)3,3.9092000000000002
mp-770462,La2Bi2O7,0.0
mp-771,MnAl,0.0
mp-774,CaNi5,0.0
mp-7769,Th2SN2,1.5541
mp-7882,Ba(AgSn)2,0.0
mp-7942,NaTiS2,0.0
mp-842,CaPt2,0.0
mp-851,ErPd,0.0
mp-8581,Sr(PRh)2,0.0
mp-8585,Pd(AuF4)2,0.622799999999999
mp-861479,PrYMg2,0.0
mp-861876,LiAc2Si,0.0
mp-862361,Sc2NiOs,0.0
mp-862620,IrRu3,0.0
mp-862683,Ac2GaCu,0.0
mp-862703,Sc2AgAu,0.0
mp-862717,LiAlAu2,0.0
mp-862800,PrI3,1.9553
mp-862841,LiPm2Os,0.0
mp-862874,PmAgHg2,0.0
mp-862898,PmCdPd2,0.0
mp-862984,PmB3,0.0
mp-863722,Pm2IrRh,0.0
mp-864629,Pm2TlCd,0.0
mp-864642,HoSnRh2,0.0
mp-864764,Ta2FeOs,0.0
mp-864890,Hf2FeIr,0.0
mp-864897,Zr2CuOs,0.0
mp-865026,Mn2VSi,0.0
mp-8651,Gd(AlSi)2,0.0
mp-865151,YbNdRh2,0.0
mp-865525,YCdHg2,0.0
mp-865652,TiMn2Si,0.0
mp-865656,TiMn2W,0.0
mp-865983,TmCdHg2,0.0
mp-866139,TiBe2Ir,0.0
mp-866155,TiAlRu2,0.0
mp-866287,DySnAu2,0.0
mp-866313,Ba3In(BO3)3,3.5039
mp-867230,TbB4Ru,0.0
mp-867851,Rb2TlAu3,0.0
mp-8720,Rb2MnTe2,0.0
mp-8761,NdCoC2,0.0
mp-892,ScPt,0.0
mp-9362,RbPrS2,2.357999999999999
mp-962,SmZn2,0.0
mp-972235,Tb3FeB7,0.0
mp-972412,TmLuIr2,0.0
mp-972524,SmSiAg,0.0
mp-975271,RbTi5Se8,0.0
mp-975442,NdErIn2,0.0
mp-975634,Pr2Ge5Rh3,0.0
mp-977410,NbGaFe2,0.091099999999999
mp-977434,Nb3Ru,0.0
mp-979972,SmAlCu,0.0
mp-980044,YbPrCd2,0.0
mp-989520,Rb2NaBiCl6,3.797
mp-9926,SrRhF6,0.0
mp-9961,Ti2CdC,0.0
mp-996943,Cs2NaInBr6,1.9899
mp-998212,RbAgBr3,0.0
mp-999288,PrTlTe2,0.8694000000000001
mvc-3418,ZnCuF5,0.0
mp-1007910,NaEuS2,0.0
mp-1009082,MgSnAs2,0.40390000000000004
mp-1018107,ZrTe2,0.0
mp-1018134,Li,0.0
mp-1018148,ScAu2,0.0
mp-1018675,DyS2,0.0
mp-1019109,SmGeRu,0.0
mp-1019317,TcB2,0.0
mp-1019602,Cs2Al2B2O7,4.249
mp-1025348,TlPPd5,0.0
mp-1025415,CePd7,0.0
mp-1025445,CeAl2Pd5,0.0
mp-1025519,RbCu4S3,0.0
mp-1040,RbCd13,0.0
mp-1070135,Er2Mg2Ru,0.0
mp-1072087,LaAu2,0.0
mp-1072429,Ga2Ru,0.1247
mp-1077442,CeAu2,0.0
mp-10778,RbPrSe2,1.9798
mp-1077830,Pr2GeRh3,0.0
mp-1077950,Tl2Pd3S2,0.0
mp-1078231,Sr(GaRh)2,0.07990000000000001
mp-1078613,DyPt,0.0
mp-1078634,LaFeO3,1.9641000000000002
mp-1078674,PrHgPd,0.0
mp-1078712,Hf2TlC,0.0
mp-1078797,SmMnSi2,0.0
mp-1078866,Y(BC)2,0.0
mp-1079423,HoSnIr,0.0
mp-1079595,NdInNi2,0.0
mp-1080680,YbCdSn,0.0
mp-1080818,Ho2CoGe2,0.0
mp-10856,Er(BC)2,0.0
mp-10895,Mn2AlV,0.0
mp-1094085,Nd3SnN,0.0
mp-1095136,La(BOs)2,0.0
mp-1095425,LiEuSb,0.0
mp-1095437,LuSeO3F,3.9996
mp-1095517,EuPIr,0.0
mp-1102110,TmGePt,0.0
mp-1103162,TiSiPd,0.0
mp-1103463,SmGeRh,0.0
mp-1104,LaMg,0.0
mp-1104160,Pr5Ir2,0.0
mp-1104177,Pr3Pt2,0.0
mp-1104297,Yb3Ga9Pd2,0.0
mp-1104568,Ba9In4H,0.0
mp-1105062,Er(Ni2P)2,0.0
mp-1105449,SmTl(PSe3)2,1.5815000000000001
mp-1105808,Er7IrI12,0.392499999999999
mp-1106056,Ba(Sb3Os)4,0.0
mp-1106280,Ca5Sn3H,0.0
mp-1113566,Cs2EuAgCl6,0.0
mp-1114156,K3RhF6,2.2333
mp-11145,BaCu9Ge4,0.0
mp-1114696,KRb2RuF6,0.0
mp-11227,Al12W,0.0
mp-11273,Be3Nb,0.0
mp-11371,ErInPd2,0.0
mp-1146,ThS2,1.033599999999999
mp-1148,Th2Pd,0.0
mp-11526,TmNi5,0.0
mp-11634,KSmGeSe4,1.6327
mp-1168,HfTe5,0.0
mp-11696,As3W2,0.0
mp-1173309,Sm10Sb3Se7,0.0
mp-1177382,Li4MnCo5O12,0.0
mp-1185513,HfMg149,0.13689999999999902
mp-1185565,Mg149Mo,0.150399999999999
mp-1185944,MgSbRh2,0.0
mp-1186309,NdHoTl2,0.0
mp-1187274,Tb2RuRh,0.0
mp-1187586,Tm2AlRu,0.0
mp-1187590,TmMgPd2,0.0
mp-1187892,Yb2H6Ru,2.5962
mp-11879,BaNiSn3,0.0
mp-1188004,Zr2TcRh,0.0
mp-1189478,Er3Ir,0.0
mp-1189645,Tb7RhBr12,0.1695
mp-1189686,Nd3Ir,0.0
mp-1190011,Ho3Os,0.0
mp-1190212,Yb5Pt3,0.0
mp-1190370,CsNd2Ag3Te5,1.0241
mp-1190831,Eu3SbO7,0.0
mp-1191013,Gd3MnAlS7,0.28900000000000003
mp-1191068,V3Zn2N,0.0
mp-1191206,K6HgSe4,1.384599999999999
mp-1191273,Tb3NiGe2,0.0
mp-1191301,RbGa2Au3,0.0
mp-1191346,Gd2Fe17C3,0.0
mp-1191537,Yb7Ni4Sn13,0.0
mp-1192040,SmBN2,2.5435
mp-1192231,CuIO4,0.9538000000000001
mp-1192595,Ba2SnSe4,1.2625
mp-1192935,PuCu6,0.0
mp-1193123,La(Sn2Rh)2,0.0
mp-1193200,Zr6Al7Cu16,0.0
mp-1193482,Dy2(Ga3Co)3,0.0
mp-1194291,GdBe13,0.0
mp-1194433,K3NaOs2O9,0.0
mp-1194520,Rb4Al2S5,3.015399999999999
mp-1194887,Ca4As3,0.6867999999999991
mp-1195333,Nd2ZrSe5,0.7197
mp-1195453,NiSb3XeF23,1.609299999999999
mp-1195892,RbFe2F6,1.5593
mp-1195909,BaPr2Sc2O7,3.5593
mp-1196123,Nd2HfS5,1.045799999999999
mp-1196148,Sm2ZrS5,1.1627
mp-1197866,Cs2U(Si2O5)3,0.5817
mp-1197952,Tb5IrBr9,0.681
mp-1197955,Gd3Ge13Ru4,0.0
mp-1198170,Nd(BRu)4,0.0
mp-1199582,Pr12(ReC3)5,0.0
mp-1199934,Ti3As,0.0
mp-1200153,Yb11(SnBi4)2,0.0
mp-1200852,NaTi2(AsO4)3,2.3987
mp-1201210,InH6(ClO)3,3.7108
mp-1201357,Cs3Tm11Te18,0.972599999999999
mp-1201364,U6Al43Cr4,0.0
mp-1201442,Tl4Si5O12,3.1724
mp-1201686,Tl2Mo3SeO12,2.3967
mp-1202328,Cs2CaV2O7,3.4074
mp-1202384,UH4(NO5)2,1.9514999999999991
mp-1202969,Tc3Se4I,0.8007000000000001
mp-1203568,TiP2(S4Cl)2,1.8405
mp-12039,Gd2Mo2C3,0.0
mp-1204388,LaMoClO4,2.6599
mp-1204660,HfCrSi2,0.0
mp-1205817,PrSnIr,0.0
mp-1206348,Cs(AsIr)2,0.0
mp-1207029,Np2SO2,0.0
mp-1207946,Y3In2(GaO4)3,2.719099999999999
mp-1208057,Tm2Mo4O15,3.2987
mp-1208476,Tb4CdPd,0.014600000000000002
mp-1208714,Tb2(Ga3Ru)3,0.0
mp-1209130,Sc2InPd2,0.0
mp-1209294,RbSm(MoO4)2,3.6788
mp-1209320,RbAgTeS3,1.8312
mp-1209785,Pr3PtBr3,0.0
mp-1209843,NdAlRh,0.0
mp-1209848,Nd2Pd2O5,1.081999999999999
mp-1210073,Nd3NiGe2,0.0
mp-1210290,Nd6Ta4Al43,0.0
mp-1210568,Lu6Co2Sn,0.0
mp-1210608,MgMnSiO4,3.131299999999999
mp-1210613,Mn2VPO7,1.5979
mp-1210656,MgZn2(AsO4)2,2.7057
mp-1210714,VH12SO10,0.142299999999999
mp-1211829,KCe(SO4)2,0.46849999999999903
mp-1212072,HoPPd,0.018999999999999
mp-1212118,HoSbRh,0.0
mp-1212256,Ho3(Al3Os)4,0.0
mp-1212321,Ho4MgRu,0.0
mp-1212672,Gd3BBr3,0.0
mp-1212829,Dy5(SiSb)2,0.0
mp-1213109,Dy3(SbPd2)4,0.0
mp-1213342,Eu3MoO7,0.0
mp-1213767,CeZr2F11,0.1796
mp-1213807,CeSiPd,0.0
mp-1215389,Zr4C3N,0.0
mp-1215577,Zr2NiS4,0.018199999999999
mp-1215977,YMg(CoNi)2,0.0
mp-1216201,Y2CrSbO7,1.9228
mp-1217028,TiB2Mo,0.0
mp-1217800,Ta12MoO33,2.2819000000000003
mp-1217909,TaTiAlC,0.0
mp-1218099,Ta6TiTl2O18,2.958199999999999
mp-1218894,Sr10P6O25,2.6253
mp-1219158,Sm6Cd(GeS7)2,2.0538
mp-1219250,ScUS2,0.0
mp-1220327,NbMo,0.0
mp-1221143,NaLi4(H2N)5,2.6786000000000003
mp-1221728,MnCrPt6,0.0
mp-1221865,Mn2InSbPd4,0.0
mp-1222089,MgCo2(PO4)2,3.219
mp-1222221,Nd3Pb3I13O40,2.8386
mp-1222612,Li2SnIr,0.0
mp-1222903,LaAl2Pt3,0.0
mp-1223315,KY(NbCl3)6,1.1155
mp-1224100,K4Ba2SnSb4,0.38459999999999905
mp-1224276,K2VOF4,2.8288
mp-1224527,GdUN2,0.0
mp-1224711,Gd2MnSbO7,0.2861
mp-1224988,Gd2InAg,0.0
mp-1225006,HoP2(HO2)5,2.1731
mp-1225361,Dy2(B2Rh3)3,0.0
mp-1225822,Cu5SeCl5O4,0.09779999999999901
mp-1225882,Cu2AgO4,0.0
mp-1225982,CsGa5(HgSe3)4,0.8055000000000001
mp-1226168,Eu2Mo2WO12,0.0
mp-1226255,DyP2(HO2)5,0.009300000000000001
mp-1226293,Cr4InAgS8,0.0
mp-1226637,CeAl2Ag3,0.0
mp-1226853,Ce5BiSb4,0.0
mp-1227006,DyCd6,0.0
mp-1227660,Ca2ZnGa3,0.0
mp-1228585,Ba4Ta10CoO30,2.4105
mp-1228782,BaMn8O16,0.8269000000000001
mp-1229164,Cs(ThSe3)2,0.0
mp-1247259,Ca3RhN3,0.0
mp-12614,Ca2Cu,0.0
mp-1274308,Sr2CoWO6,2.3936
mp-1307,LiGa,0.0
mp-13172,YMgCu4,0.0
mp-13225,DyMg2Cu9,0.0
mp-13483,PrBPt4,0.0
mp-1357,P3Rh,0.0
mp-13620,ScSi7Ir3,0.0
mp-14002,Ba4GeAs4,0.824199999999999
mp-14192,Na2UF6,0.24149999999999902
mp-14430,Sr2YRuO6,0.0
mp-14439,K5TlO4,1.485199999999999
mp-14515,NaNd(GaS2)4,2.105
mp-14673,Sb9S4F39,1.7301000000000002
mp-14853,Ba3Er4O9,3.4023
mp-15964,Hf3Sb,0.0
mp-1601,TaRu,0.0
mp-16124,BaPr2MnS5,0.0
mp-16250,Th(SiAu)2,0.0
mp-16498,Sm(Al2Cu)4,0.0
mp-16509,LuAl4Ni,0.0
mp-16605,Sr2TmTaO6,3.8791
mp-16678,Nd2Mo4O15,2.566499999999999
mp-1697,TbPt2,0.0
mp-1727,SrSi2,0.0
mp-17538,K3SbSe3,2.2951
mp-17678,Sr(ScS2)2,1.357799999999999
mp-17750,Pr2SiTeO4,2.083699999999999
mp-17911,Ba2ZnO3,3.0235
mp-18112,Sr2Ge2Se5,1.1252
mp-18466,Nd2SiSeO4,2.8708
mp-18494,Nd2MoO6,2.7089
mp-1892,Ba2N,0.0
mp-1910,CeNi5,0.0
mp-19126,NdCrO4,0.33420000000000005
mp-19240,ErCrO4,0.301899999999999
mp-19448,Ni3TeO6,0.0
mp-1956,TmGa2,0.0
mp-19900,La(GeRu)2,0.0
mp-19919,GdSn3,0.0
mp-20173,Ce(CuGe)2,0.0
mp-20245,CeFeSi,0.0
mp-2033,Ni3N,0.0
mp-20394,EuPb,0.0
mp-20503,GdTl3,0.0
mp-2061,ThTl3,0.0
mp-20722,CeFeGe3,0.0
mp-20744,ZrInNi2,0.0
mp-20835,CeSnIr,0.0
mp-20999,La3InN,0.0
mp-21192,GdSi2,0.0
mp-21943,Ba(InS2)2,2.2042
mp-21991,Rh17S15,0.0
mp-22106,NdNiO3,0.0
mp-22145,Sm3(Ge2Ru)2,0.0
mp-22284,SrInPt,0.0
mp-22962,CsTiBr3,0.0
mp-23602,TaBi4ClO8,1.3359
mp-24208,CrH2,0.0
mp-2512,AsPd5,0.0
mp-2525,PrAg,0.0
mp-26127,LiVPO4,2.6022
mp-2674,YPt2,0.0
mp-27153,UBr4,0.21649999999999903
mp-27382,UTlF5,0.11749999999999901
mp-27637,NiBr2,0.47749999999999904
mp-27674,K5As3O10,3.057
mp-27859,SbI5F6,0.9324
mp-27887,Ba3(Si2P3)2,0.615499999999999
mp-28273,K3CuO2,1.5307
mp-28372,AuSeCl7,1.7429999999999999
mp-28585,Nb3ICl6,1.0701
mp-28706,Sr5(B5Rh7)2,0.0
mp-28827,Tb3(MnC3)2,0.0
mp-28895,Ba(P2Pd)2,0.0
mp-29133,OsCl2O,0.0
mp-29237,Tl2SnSe3,0.9872000000000001
mp-29241,Ca3SnO,0.6524999999999991
mp-29298,Ba4Ti13O30,2.5353
mp-2973,Pr3Sb5O12,3.187999999999999
mp-29767,Pt5Se4,0.0
mp-30119,Cs3AsO4,3.3619
mp-30422,Sr7Au3,0.0
mp-30437,CaSnPd,0.0
mp-3045,ErFe4B,0.0
mp-30569,Zr6Co23,0.0
mp-30817,LiAl2Pd,0.0
mp-30845,SmPt3,0.0
mp-3092,DyB2Ru3,0.0
mp-31018,SrAgBi,0.0546
mp-312,ThIr5,0.0
mp-31215,AgPdF6,0.0
mp-31322,La6OsI10,0.0
mp-31402,Sm2GeRh3,0.0
mp-31443,Li2InIr,0.0
mp-31517,Ta2CoO6,2.0382
mp-3283,RbNbO3,3.3102
mp-3453,Er(MnGe)6,0.0
mp-3569,Nd(Sb3Os)4,0.0
mp-36836,Sr4Ru2O9,0.0
mp-40630,CaPrMn2O6,0.0
mp-4065,Dy(SiIr)2,0.0
mp-4091,Ni2Mo3N,0.0
mp-4194,Zn(CrS2)2,0.0391
mp-4764,Pr2SeO2,2.3242000000000003
mp-4841,LaCuS2,1.234499999999999
mp-495,LuGa3,0.0
mp-4972,LuInCu2,0.0
mp-504502,Ta3P,0.0
mp-504601,Cs2ZnO2,1.712899999999999
mp-505046,Gd3Sb5O12,2.7177
mp-5051,Ho2Mo2C3,0.0
mp-505333,Hf5CoAs3,0.0
mp-505814,CsBa2Nb3O10,1.4583
mp-5091,Dy(Al2Fe)4,0.0
mp-510152,DyNiSn,0.0
mp-510592,Tb5CoSb2,0.0
mp-5241,DyPS4,2.3342
mp-530331,Al6SnTe10,1.436999999999999
mp-530564,Sr14MnAs11,0.109699999999999
mp-540672,Ti7Br16,0.0
mp-541754,TiCu2Te3,0.0
mp-542729,Dy3Ni13B2,0.0
mp-542919,NaGe2(PO4)3,3.8315
mp-550111,SmBi2BrO4,1.346299999999999
mp-551675,Li3UO4,0.38769999999999905
mp-553930,B2Pb6SO12,2.7033
mp-554147,Rb2Nb2P2S11,1.1396
mp-554421,KCu2AsS3,1.172499999999999
mp-554803,VPbClO3,2.417099999999999
mp-554980,Mn(IO3)2,2.3269
mp-555526,RbAg(NO3)2,2.476
mp-555857,BaVS3,0.0
mp-556026,VOF3,3.6569000000000003
mp-556179,Pr3Si2S8Cl,2.7503
mp-556728,TaP2S2Cl5,2.3399
mp-557130,Zn2TeCl2O3,3.6543
mp-557289,TiP2Cl8O3,2.7254
mp-557436,NaNb2PS10,1.6443
mp-557697,Hg2Sb2O7,0.192
mp-557717,Li3Nd3(WO6)2,3.6651
mp-558362,CaMgGeO4,3.623599999999999
mp-558673,Pb3WCl2O5,3.213599999999999
mp-559115,P2RhClF6,1.422099999999999
mp-559369,Zr2H12(N2O7)5,1.4476
mp-559493,TiPCl7O,2.6595
mp-559911,V4S9Br4,0.6585000000000001
mp-560086,Nd4(GeS4)3,1.9759000000000002
mp-560329,Ce2Zr2O7,0.0
mp-560378,Ca3Ta4(O6F)2,3.8805
mp-561584,Gd2GeO5,0.0
mp-567490,Hf5Re24,0.0
mp-567602,Yb2Co12P7,0.0
mp-567705,TiAl2,0.0
mp-567776,Cs2AgAuCl6,0.7578
mp-567795,Tm10In20Rh9,0.0
mp-567966,RbZr6CCl15,1.1281
mp-568069,Ti2Bi,0.0
mp-568531,Bi2Pt,0.0
mp-568555,SmSi2Rh3,0.0
mp-569071,La5Al3Ni2,0.0
mp-569335,Sm2C3,0.0
mp-569514,Zn49Pt29,0.0
mp-569564,Th2Al2C3,0.0
mp-570035,ErNi3Ge2,0.0
mp-570097,Sr(Li2P)2,1.1691
mp-570123,Cs3BiCl6,3.8526
mp-570159,SmZnSn,0.0
mp-570369,Ce16Ru9,0.0
mp-570441,Sm4Ga16Co3,0.0
mp-570482,Ba(AlGe)2,0.0
mp-571582,TlHg3Sb2Br3,0.6522
mp-572442,Cs3Nd(PS4)2,2.1845
mp-581584,Cs2U(SiO4)2,2.2215
mp-601257,DyCuPbSe3,1.311
mp-603888,Sr5Mn5O13,0.0
mp-607715,PrZnRh,0.0
mp-610687,CeSnRu,0.0
mp-6182,CsTb2Cu3Se5,1.3034
mp-622508,GdSi2Rh3,0.0
mp-6290,NaInP2O7,3.7446
mp-6412,Li2CuP2O7,0.0
mp-646399,Gd(NiGe)2,0.0
mp-651772,UTe5,0.0
mp-662556,Re(TeBr2)2,1.9379
mp-667295,Cs7Cd3Br13,2.9374000000000002
mp-672248,TaAsPCl13,2.6094
mp-672373,La3Co4Sn13,0.0
mp-680536,Ce5Ir4,0.0
mp-686499,Ba32Sb7Pb25O96,0.0
mp-697076,Ti3Zn3C,0.0
mp-697339,Ho2H4CO7,4.9986000000000015
mp-710,SmP,0.0
mp-7155,CsErZnSe3,2.1566
mp-733637,NaH8O5,3.5073
mp-744948,FeH8(ClO2)2,3.8562000000000003
mp-753747,Ta3O7F,2.2625
mp-754207,Tb2Mn2O7,0.876599999999999
mp-754640,Ce2SeO2,0.0
mp-754883,KHoO2,3.9742
mp-756670,Eu2Pb2O7,0.0
mp-757102,Sr2RhO4,0.0
mp-766823,Li7Ti11O24,0.0
mp-773199,Cs6Co2O7,1.1471
mp-775326,Li2Ti3NiO8,2.7066
mp-777961,Li4V(BO3)2,2.7351
mp-787,U3P4,0.0
mp-7874,LiGaGe,0.0
mp-7918,HfGeS,0.0
mp-8583,Ba(PRh)2,0.0
mp-8605,SrSbPt,0.0
mp-861889,Sc3Tc,0.0
mp-861932,LiZnAu2,0.0
mp-861948,LiPm2Al,0.0
mp-861958,Ti2MnBe,0.0
mp-861975,PaO3,0.0
mp-861978,Hf2ReIr,0.0
mp-862610,LiHfIr2,0.0
mp-862612,ScPaTc2,0.0
mp-862700,AlVOs2,0.0
mp-862835,PaZnPt2,0.0
mp-862949,NaPmTl2,0.0
mp-862965,PmTlAu2,0.0
mp-863656,PmH,0.0
mp-863741,Pm2PdRu,0.0
mp-864631,LiNbRh2,0.0
mp-864699,NdRh3,0.0
mp-865116,LiSmTl2,0.0
mp-865216,Dy2PdRu,0.0
mp-865386,GdGa3,0.0
mp-865415,YbTmPt2,0.0
mp-865441,TiAlPd2,0.0
mp-865653,TiNbRe2,0.0
mp-865857,YbNbRu2,0.0
mp-866026,ErNbOs2,0.0
mp-866315,Al(Ni3B2)4,0.0
mp-867112,AcInTe2,0.849499999999999
mp-867119,LiHfPd2,0.0
mp-867142,Sm2IrPd,0.0
mp-867204,LiCd2Ag,0.0
mp-867747,Nb3Fe(PO4)6,2.6412
mp-867768,ScZnPt2,0.0
mp-867898,DyAgHg2,0.0
mp-9223,ScGeRu,0.0
mp-926,PuP,0.0
mp-9680,Na3AlTe3,2.2355
mp-974030,LaRh3,0.0
mp-974399,HoNiGe2,0.0
mp-974482,K4Hf5O12,3.273999999999999
mp-974943,HfZrTc2,0.0
mp-975834,MoRu3,0.0
mp-975886,PrSmZn2,0.0
mp-976184,Hf4Co4Si7,0.0
mp-977059,MgPd5,0.0
mp-977369,HoMgHg2,0.0
mp-977430,MgNbRu2,0.0
mp-977552,Be3Tc,0.0
mp-978564,SmYTl2,0.0
mp-979,ZrSb2,0.0
mp-979427,YHoZn2,0.0
mp-984586,Nb4Co4Si7,0.0
mp-985805,AlAg2,0.0
mp-989569,Rb2NaPbF6,0.0
mp-9960,Y3TlC,0.11849999999999901
mp-997183,MnAuO2,0.7067000000000001
mp-1014265,Zr2N,0.0
mp-1018154,Hf2Hg,0.0
mp-1018709,Hf2GaSb3,0.0
mp-1019257,SmZnGa,0.0
mp-1020627,SrLiAl3N4,2.9415
mp-1025069,PrSn2,0.0
mp-1025105,LuAlGe,0.0
mp-1025352,Ce2C(NO)2,0.0
mp-1025357,Lu2Fe2Si2C,0.0
mp-1025389,LuAl2Ni,0.0
mp-10318,Tb2Co3Si5,0.0
mp-1037,PrPt5,0.0
mp-10528,Ho2AlSi2,0.0
mp-10566,Lu3BC3,0.0
mp-1063607,CrPdO2,0.0
mp-1066791,TmTlS2,1.483099999999999
mp-1067986,Er2InNi2,0.0
mp-1068164,Tb2InNi2,0.0
mp-1068827,TbSi3Rh,0.0
mp-1069,HfSi2,0.0
mp-1069147,PrFeGe3,0.0
mp-1069765,SmSi3Rh,0.0
mp-1070146,DySi3Ir,0.0
mp-1070837,TbMgCo4,0.0
mp-1071453,Nd2Bi,0.0
mp-1077109,SmSiPt,0.0
mp-10779,RbNdSe2,1.9719000000000002
mp-1078268,Pr2BC,0.0
mp-1078736,Pr(NiSb)2,0.0
mp-1078827,YSnRh,0.0
mp-1078842,GdHg3,0.0
mp-1078859,Er6MnTe2,0.0
mp-1079288,Pr(PRh)2,0.0
mp-1079784,Sr(RuO3)2,0.049600000000000005
mp-1080821,BaF3,0.878899999999999
mp-1087511,UFeAs2,0.0
mp-10894,MnAlRh2,0.0
mp-10914,K3Cu5O4,1.5514000000000001
mp-1094043,Ti5InS8,0.0
mp-1094107,Na2Zn2S3,2.1607
mp-1094763,MgCd2,0.0
mp-1095149,LiLaBi2,0.0
mp-1095201,ZrCuGe2,0.0
mp-1095238,Eu3(GeIr)4,0.0
mp-1095274,LiYbAs,0.992599999999999
mp-1095484,PrAl4Ni,0.0
mp-1095499,CsAuCl4,1.8897
mp-1095583,DyGaPt,0.0
mp-1096812,Ag2SnSe3,0.058600000000000006
mp-1101768,La3(ZnPd)4,0.0
mp-1101968,HoTc2,0.0
mp-1101982,VCoP,0.0
mp-1102,LuN,0.3793
mp-1102049,TaBe3,0.0
mp-1102160,EuGaSn,0.0
mp-1102191,DyAlAu,0.0
mp-1102687,ZrNiGe,0.0
mp-1102879,ErSiPt,0.0
mp-1103115,PrNiGe,0.0
mp-1103503,GdSnPd,0.0
mp-1103570,Ca5Pt2,0.0
mp-1103787,Si7(Ni2Au)2,0.0
mp-1103808,La4H9,0.0
mp-1104036,Gd3Se2NO,1.754
mp-1104662,Yb5Pt2,0.0
mp-1105005,Ni3Se4(ClO5)2,3.1206
mp-1105128,Ho(Co2B)6,0.0
mp-1105260,Tb4InGe4Rh,0.0
mp-1105777,U3Sb4Ir3,0.0
mp-1105841,Dy3Ru,0.0
mp-1112467,K2GaAgF6,2.2432
mp-1112944,Cs2NdAgBr6,3.407499999999999
mp-1114379,Rb3TlF6,3.8013
mp-11538,TbAlNi,0.0
mp-11566,ScZn,0.0
mp-11693,TePt,0.0
mp-1173034,La2Th8O19,2.747899999999999
mp-11778,ThMnSe3,0.0
mp-1181055,Ho5Tl3,0.0
mp-1181438,Er5BiAu2,0.0
mp-1183039,ZrTaTc2,0.0
mp-1183950,Cs2HgBr4,2.468099999999999
mp-1185317,LiBe2Pt,0.0
mp-1186453,Pm2GaCu,0.0
mp-1186492,PaInTc2,0.0
mp-1186581,PmGe3,0.0
mp-1186627,PmPrHg2,0.0
mp-1186672,PmYZn2,0.0
mp-1187537,YbTmPd2,0.0
mp-1187660,YbEuCd2,0.0
mp-1187694,V2OsW,0.0
mp-1188079,Zr2InNi2,0.0
mp-1188601,TbB2Ru,0.0
mp-1188853,CaTcO3,0.0
mp-1189978,Hf5GaSn3,0.0
mp-1190466,CoBi6(SO8)2,2.349999999999999
mp-1190707,Tm2Fe12P7,0.0
mp-1190732,LaSi2Ni9,0.0