material_id,pretty_formula,band_gap
mp-863682,PmGa3,0.0
mp-863710,KAcTe2,1.1958
mp-863716,Pm2IrPd,0.0
mp-863733,Pm2RuAu,0.0
mp-863744,Ca2PdAu,0.0
mp-864645,YbSiPt2,0.0
mp-864762,LiMg2Zn,0.0
mp-8648,TiFeSi,0.0
mp-864841,Nb4Ni2C,0.0
mp-864973,Dy2CdIn,0.0
mp-864978,Mg2AgAu,0.0
mp-865018,CuBiPtS3,0.5441
mp-865227,TmMgCd2,0.0
mp-865342,Zn3Rh,0.0
mp-865357,Zn3Pd,0.0
mp-865554,Mn2VGe,0.0
mp-865625,Na2MgSn,0.0234
mp-865742,YbCdHg2,0.0
mp-865792,BeSiNi2,0.0
mp-865863,Li2TlPd,0.0
mp-865951,Ac2IrAu,0.0
mp-866024,Be2RhAu,0.0
mp-866147,Lu2AgOs,0.0
mp-866185,CeCdAu2,0.0
mp-866211,Lu2CdIn,0.0
mp-866664,K8Zr6BBr20,0.052999999999999006
mp-866709,K2CrH2F8,2.0316
mp-867221,Ce3(TaN3)2,0.0
mp-867241,Ac2GePd,0.0
mp-867894,Sm2MgAl,0.0
mp-9164,ThSiAu,0.0
mp-9365,RbTbS2,2.3392
mp-9370,RbLuS2,2.4324
mp-972032,Tl(IO3)3,2.2066
mp-973410,NdAl2Cu9,0.0
mp-973757,PmBiRh2,0.0
mp-975577,K3La(AsO4)2,3.8802000000000003
mp-977564,MgScHg2,0.0
mp-979911,Y2Au,0.0
mp-980068,YbSmPd2,0.0
mp-982017,PrYTl2,0.0
mp-989402,Sr6In2NF,0.0
mp-996941,Cs2RbInBr6,2.5058
mp-998758,TlHgF3,2.1963
mp-10033,NbS2,0.0
mp-10118,Mn3B4,0.0
mp-10135,YbBPd3,0.0
mp-10137,UB2Ru3,0.0
mp-1014227,Ti2ZnN,0.0
mp-1024048,Na4Zn3Se5,1.2551
mp-1025045,TiGaPd,0.0
mp-1029347,KPtN,0.0
mp-1029367,MnCoN2,0.0
mp-1029959,Ca2MnN3,0.0
mp-1068167,Sr2Ge2Pb,0.0
mp-1068422,EuGe3Pd,0.0
mp-1071478,CeInPt4,0.0
mp-1071811,DyCdNi4,0.0
mp-1075,SmNi5,0.0
mp-1077270,GdB2Ir3,0.0
mp-1077349,ThGeTe,0.0
mp-1077547,TmNi4Au,0.0
mp-1077788,BPt2,0.0
mp-1077922,Tl2Rh3S2,0.0
mp-1078235,TmInPd,0.0
mp-1078370,CeBi2Au,0.0
mp-1078428,Ca2GaPt2,0.0
mp-1078856,SmInNi,0.0
mp-1078957,Ta3Be2,0.0
mp-1078973,Sr(InP)2,0.18330000000000002
mp-1079386,TbZnPd,0.0
mp-1079779,Tb2InCu2,0.0
mp-1080116,SmCuSb2,0.0
mp-1080451,TbPd,0.0
mp-1096880,CaZnPb,0.0
mp-1101973,YbAsPt,0.0
mp-1102035,SmRe2,0.0
mp-1102133,Tm2Pt,0.0
mp-1103265,Y3(CuGe)4,0.0
mp-1103423,ErNiP,0.0
mp-1103476,DyB12,0.0
mp-1103651,NdSbSe,0.0178
mp-1103784,Tb(Ni2As)2,0.0
mp-1104579,Ce2H5,0.0
mp-1105141,TbTl(PSe3)2,1.529
mp-1105896,La5Pb3,0.0
mp-1105977,Lu2Si5Ni3,0.0
mp-1106395,Pr3Ir,0.0
mp-11106,PaAs2,0.0
mp-11151,NaPrTe2,1.056199999999999
mp-11241,DyAu2,0.0
mp-11256,ScAu,0.0
mp-11363,TbCu5,0.0
mp-11396,NdGa2Ni,0.0
mp-1178424,CoNiO3,0.0
mp-1182634,B9Pb8O21F,3.4333
mp-1183192,AcYbTl2,0.0
mp-1183633,CdPd2Au,0.0
mp-1183797,Ce2Si5Ni3,0.0
mp-1184120,DyTmIr2,0.0
mp-1184583,Ho2AlRu,0.0
mp-1184742,GdZrRu2,0.0
mp-1185632,Mg149Se,0.1711
mp-1186560,PmErPd2,0.0
mp-1187150,SrAcAu2,0.0
mp-1187186,SrLaHg2,0.0
mp-1187196,Ta3Ir,0.0
mp-1188199,Pr(YS2)3,1.043799999999999
mp-1189012,Y2Si5Ir3,0.0
mp-1189069,Nd(ErS2)3,1.024799999999999
mp-1189501,La7Pt3,0.0
mp-1189950,LuSiPd2,0.0
mp-1190453,Pr3AsS5Cl2,2.1945
mp-1190517,BaNp(HO2)3,1.4835999999999991
mp-1190715,Er3FeB7,0.0
mp-1191219,GdRh3,0.0
mp-1191899,DyVB4,0.0
mp-1191988,YMnB4,0.0
mp-1193584,U8FeSe17,0.0
mp-1194201,Nb3Fe3N,0.0
mp-1194241,CeCu5Ag,0.0
mp-1194540,Rb2Sn3(SbS5)2,1.7847
mp-1194578,BaPr(SnS3)2,0.363799999999999
mp-1194592,AgI3O8,2.2994
mp-1194656,MnPb2WO6,1.7195
mp-1194961,NbTlV2O8,2.4614000000000003
mp-1195444,Zr(Zn10Ni)2,0.0
mp-1195788,K2Mo2Se2O11,2.818
mp-1196758,KCd(BO2)3,3.7556000000000003
mp-1196815,Np(PS3)4,0.48760000000000003
mp-1196984,Ga2PbS4,2.556499999999999
mp-1197438,Pr3Fe5O12,1.8327
mp-1197503,S5(IO9)2,2.7759
mp-1197936,U(Zn10Fe)2,0.0
mp-1197980,CrPb2F7,3.6129
mp-1198083,Gd5Ge4,0.0
mp-1198513,Pr2Nb2S7O30,0.1295
mp-1198715,Er3Rh2,0.0
mp-1198905,Cs12Sn8GeO4,1.302299999999999
mp-1199156,Na2Cu(NO3)4,0.6753
mp-1199972,Ho10Mn13C18,0.0
mp-1200167,Y11(In3Ge2)2,0.0
mp-1201643,Cs3U2PO10,2.1889
mp-1201869,Lu2ReB6,0.0
mp-1202046,Sr2PIO4,4.2921
mp-1202362,Yb4Ta25O68,0.0020999999999990002
mp-1202577,Pr2ThS5,1.388499999999999
mp-1202971,Ba2Gd2Si4O13,0.14120000000000002
mp-1205037,Dy11(In3Si2)2,0.0
mp-1205160,Rb9Fe7(PO4)10,2.397999999999999
mp-1205712,YSiRu2C,0.0
mp-1205771,UFe2SiC,0.0
mp-1205839,Dy4Mg3Co2,0.0
mp-1206135,Hf6FeSb2,0.0
mp-1206265,LaSiI,0.0
mp-1206318,Nd3Sn7,0.0
mp-1206333,TbCr2Si2C,0.0
mp-1206744,TmBiPd,0.0
mp-1206887,ThCoGe2,0.0
mp-1206911,ErRu3C,0.0
mp-1207024,Zr3Si2,0.0
mp-1207218,Ce(PPd)2,0.0
mp-1207773,Y5(NiTe)2,0.0
mp-1207945,TmIn2Pd,0.0
mp-1208160,Tm6Al43V4,0.014700000000000001
mp-12083,CrIr3,0.0
mp-1208310,TbSiPd2,0.0
mp-1208346,TbFeB4,0.0
mp-1208574,Ta4Se8SI8,1.0721
mp-1208774,Sr5Re3BrO15,2.3998
mp-1208802,Sr3Ga2Cl2O5,3.5152
mp-1208881,Sr2CaSbO6,0.0
mp-1208948,Sm2(Ga3Rh)3,0.0
mp-1209,RbAu5,0.0
mp-1209024,Sc6Sn5,0.0
mp-1209201,Sm(AlBr4)3,3.4356
mp-1209336,Pr2Sn3,0.0
mp-1209343,Sr2In4Au3,0.0
mp-1209522,Rb2Mn3Te4,0.24279999999999902
mp-1209584,Rb2Th(NO3)6,3.667499999999999
mp-1209786,Nd2MgPtO6,2.0682
mp-1209814,Pr3OsBr3,0.0
mp-1209840,NdSi2Ir3,0.0
mp-1210322,Nd6Ti4Al43,0.0
mp-1210408,Nd3Tm2(GaO4)3,3.1041
mp-1210727,Nd3Lu2(GaO4)3,3.1478
mp-1211215,Li2Nd(NO3)5,3.693
mp-1211407,La3Ni3Bi4,0.0
mp-1211836,K8Zr6BeBr20,0.832399999999999
mp-1212260,Ho3(Al3Ru)4,0.0
mp-1212306,Ho4CdPt,0.0
mp-1212738,Gd3SiBr3,0.0
mp-1212823,Dy5(SiB4)2,0.0
mp-1212872,Er3(Si3Pd10)2,0.0
mp-1212934,ErZnGe,0.0
mp-1213071,Dy2(Al3Pd)3,0.0
mp-1213306,CsSm(MoO4)2,3.6663
mp-1213384,Eu3B2(O2F)3,0.0
mp-1213418,CsHo(NbBr3)6,0.9586000000000001
mp-1213700,CsCaTa6Cl18,0.16159999999999902
mp-1213815,Ce3TiSb5,0.0
mp-1214298,BaVCdF7,2.5327
mp-1215058,BaNa2(Ge4O9)2,3.0309
mp-1215553,YbAlCu5,0.0
mp-1215657,Zn9Ga3Mo2,0.0
mp-1215824,ZnCr8Cu3Se16,0.0
mp-1216653,UNbC2,0.0
mp-1216692,TiNbB4,0.0
mp-1216977,V2FeGe,0.0
mp-1217193,Ti3Fe5P4,0.0
mp-1217363,TcRu,0.0
mp-1218028,Ta4MoS10,0.0
mp-1218262,SrGaSi,0.0
mp-1218995,SmGdSe2,0.0
mp-1219147,Sm6Cd(SiS7)2,1.8733
mp-1219149,Sm6Mg(GeS7)2,2.0717
mp-1219180,Sm2SbO2,0.0
mp-1219603,RbCrCuF6,0.0
mp-1219910,Pr2AlSi,0.0
mp-1219974,PrGa3Pd,0.0
mp-1220276,Nd3Bi(Ru2O7)2,0.0
mp-1220716,Nb2GaCo3,0.0
mp-1220945,NaPr2Se3,0.0
mp-1221560,Na19Zr11S30,0.0
mp-1222194,Mn29H2,0.0
mp-1223101,La8(BiSb)3,0.0
mp-1223401,KNb4AsO13,2.4210000000000003
mp-1223607,KAs3(PbO3)4,3.465
mp-1223753,Ir(N2Cl3)2,0.30920000000000003
mp-1223850,Hf2CN,0.0
mp-1224114,K4Ba2SnP4,0.7927000000000001
mp-1224337,HfScGe4,0.0
mp-1224394,HfUN2,0.0
mp-1224490,Hf2Sb2Pb4O13,1.4763000000000002
mp-1225058,Er2AlFe3,0.0
mp-1225604,FeNi35S32,0.0
mp-1226139,Dy9Al5S21,2.3589
mp-1226520,CeTh2S3,0.0
mp-1227057,Ce2Mn17C2,0.0
mp-1227465,Ca4Zn51,0.0
mp-1227716,Ca3Ga2(Ge2O7)2,3.014
mp-1227841,BaLaB12,0.0
mp-1228228,Al7Cr(Bi2O9)2,2.583299999999999
mp-12283,Li5Tl2,0.0
mp-1228320,Cs19(W2N5)6,0.0
mp-1228534,Bi13Mo6(AsO14)3,2.5928
mp-1228856,AlPPd4,0.0
mp-1228877,Ba(GaO2)2,3.0223
mp-1236840,DySbO4,2.301799999999999
mp-12406,US3,0.0
mp-12469,LaCd2Pd,0.0
mp-1247753,PmNdTl2,0.0
mp-12557,SrCuAs,0.004599999999999001
mp-12569,PrB4,0.0
mp-12625,U2TeO2,0.0
mp-12662,Re24Mo5,0.0
mp-13,Fe,0.0
mp-13037,TmGe2,0.0
mp-13195,NdSbO4,2.237799999999999
mp-1367,Mg2Si,0.29349999999999904
mp-13797,K2NaCuF6,0.7775000000000001
mp-1437,LiCd,0.0
mp-14552,Ba2SrUO6,2.312799999999999
mp-1527,TbCu2,0.0
mp-15277,La5Cu19P12,0.0
mp-15796,LiHoSe2,1.725899999999999
mp-16504,HoAl4Ni,0.0
mp-16623,DyAl7Au3,0.0
mp-17153,Ba(TbTe2)2,0.7873999999999991
mp-17410,CsEr3Se5,1.5441
mp-17534,Ho2Ge5Rh3,0.0
mp-17569,SmPtF7,2.4107
mp-17774,K2Li3GaO4,3.4186
mp-18610,Sm2SiSeO4,2.9708
mp-18629,NaTmGeO4,3.6329000000000002
mp-18844,CaMn2O4,2.0262000000000002
mp-18909,BaNi2(PO4)2,3.752399999999999
mp-1894,WC,0.0
mp-19305,CaV2O5,0.0
mp-19474,Ba2V2O7,3.4829
mp-19508,SrCr(Si2O5)2,3.2707
mp-19782,TbInCu,0.0
mp-1982,Al21Pt8,0.0
mp-19920,Ce3Ga,0.0
mp-20303,LaIn4Ni,0.0
mp-20650,CeCrGe3,0.0
mp-21082,Dy(GeRu)2,0.0
mp-21093,SrPb,0.0
mp-21209,Cu3(AsO4)2,0.0
mp-2147,SrGe,0.0
mp-21533,CuP2PbO7,0.6361999999999991
mp-21661,YSi3Ni5,0.0
mp-22141,BaIn2,0.0
mp-22277,EuCuAs,0.0
mp-22325,P2Pb2O7,3.6665
mp-22440,LuSiIr,0.0
mp-22613,Nb3FeS6,0.0
mp-22660,InAgO2,0.24980000000000002
mp-22664,HoRh3C,0.0
mp-227,SmCu5,0.0
mp-22759,CoBW,0.0
mp-22953,YbCuBi,0.0
mp-23102,Sr2Cu(ClO)2,0.0
mp-23382,Y4CI5,0.0
mp-23967,CoH2SeO5,1.7409
mp-24141,CsHSeO4,3.6444
mp-2723,IrO2,0.0
mp-2730,HgTe,0.0
mp-2731,TiGa3,0.0
mp-27314,SbClF8,3.1793
mp-27465,S8O,2.4236
mp-27580,Zn3(AsO3)2,3.5393
mp-27921,Ti2PCl13,2.309599999999999
mp-28048,KTlBr4,1.817899999999999
mp-28062,Sb2F7,3.8313
mp-28299,USe2O7,2.1387
mp-28381,Cs3InO3,2.1089
mp-2850,B2Os,0.0
mp-28522,Gd2CBr,0.0
mp-28530,K2Ta15O32,0.0
mp-28795,LaSi2Ru,0.0
mp-28881,Rb2UCl5,0.116899999999999
mp-29343,NaCu3F7,0.1086
mp-29407,AlTeI7,1.8899
mp-29588,Nd3(BN2)2,0.0
mp-29661,Si5Pt6,0.0
mp-29797,GdBrO,0.077499999999999
mp-2991,Cs2UO4,1.8352
mp-30125,PrTe2Se,0.0
mp-30282,La2I5,0.1753
mp-30325,In2(Se2O5)3,3.4656000000000002
mp-30416,Rb4Sn2Au7,0.0
mp-30443,Be17Ru3,0.0
mp-30986,Zn3S2O9,3.3638999999999992
mp-3106,Np(SiRu)2,0.0
mp-3108,Lu(SiRh)2,0.0
mp-31108,Pr12InPt7,0.0
mp-33239,Pu2S3,0.0
mp-35841,Li2CuGe,0.0
mp-3718,ThTeO,0.45570000000000005
mp-3854,Y(MnSi)2,0.0
mp-3930,Sc2MnS4,0.0
mp-4068,Na2GeS3,2.4683
mp-4093,Cu3(PO4)2,0.0
mp-4579,LaSiRu,0.0
mp-4689,Al7FeCu2,0.0
mp-4759,ZrTe3O8,3.6731
mp-5000,Tl(CuSe)2,0.0
mp-504699,Ba2UFeO6,0.518
mp-505002,Sc5As3,0.0
mp-505088,NbTe4I,0.48689999999999906
mp-505483,SmGePt,0.0
mp-505528,Nb3P,0.0
mp-510321,Zr5AlSn3,0.0
mp-510548,Y4Ga12Pt,0.0
mp-510558,Rb2SrV4O12,2.793599999999999
mp-518,Ti5Re24,0.0
mp-5227,Dy(NiP)2,0.0
mp-540939,Ti(TlS)4,2.509899999999999
mp-541060,K2(ReSe2)3,1.1321
mp-541240,Sb3O2F5,3.7837
mp-541504,U4Tc7Ge6,0.0
mp-541696,Cs2TlCl5,1.8248000000000002
mp-541758,Ta2Se17Br12,1.3839000000000001
mp-542005,Ce5Ge2Rh,0.0
mp-542085,Sr2GeO4,3.5381
mp-542138,Ca3Si2Ni3,0.0
mp-550117,Sm4Se3O4,1.2826
mp-552857,TbBi2IO4,1.350099999999999
mp-554649,Na3NiF6,0.6436000000000001
mp-555268,K2Sm2IrO7,0.3065
mp-5557,ThB4Mo,0.0
mp-555750,Nd2SnS5,0.179599999999999
mp-555900,Nb2Tl5S4Cl9,1.723199999999999
mp-556378,BiSeClO3,3.5892
mp-556514,Ni5Sn(BO5)2,2.5999
mp-556958,La4S3N2,1.2417
mp-557715,Cd(AuF6)2,1.8479999999999999
mp-557802,K2Be(Si2O5)2,4.6975999999999996
mp-557927,Na2SrV3O9,2.216999999999999
mp-558289,UAg2(SeO4)2,1.504699999999999
mp-558396,Rb2Te(H6O5)2,3.0087
mp-559129,Li3Er(NO3)6,3.1147
mp-559336,NaNb3(TeO4)4,2.024699999999999
mp-559422,Bi4Au2O9,0.794
mp-560051,RbSiBiS4,2.084399999999999
mp-560687,Nb3Te8I7O,0.4605
mp-560812,KU2(PO4)3,0.0
mp-561072,Sr2DySbO6,3.6676
mp-561357,TiNb3Cl7O2,0.0
mp-567414,BiAuCl6,1.6253000000000002
mp-567963,Lu5Ir2,0.0
mp-568046,Y5Mg13Cu5,0.0
mp-568056,LaCo9Si4,0.0
mp-568090,LaBC,0.0
mp-568108,InBr2,2.4203
mp-568203,K2Th(PSe3)3,1.7402000000000002
mp-568379,KInSnSe4,1.3747
mp-569261,Pr7CoI12,0.0379
mp-570498,Pr4C2Cl5,0.0
mp-570634,Cd3As2,0.0
mp-570666,Mo3Pt2N,0.0
mp-570668,LaSe2,0.28200000000000003
mp-570779,Pr3OsI3,0.194699999999999
mp-570921,CsLu(NbCl3)6,0.945199999999999
mp-571164,Rb3AgSn3Se8,1.173
mp-571342,TiGa2,0.0
mp-573001,CsGd(PO3)4,3.531899999999999
mp-573548,La3(GaNi2)2,0.0
mp-573815,ReI3,0.9580000000000001
mp-5766,CeCuS2,0.0
mp-5779,Sm3RuO7,0.0
mp-578752,Sr11InSb9,0.8611000000000001
mp-582119,Tb4InRh,0.0
mp-582126,LaNi5As3,0.0
mp-582142,Ce3Bi4Pd3,0.0
mp-5999,Sm2Ti2S2O5,0.777799999999999
mp-6068,Sr2TbRuO6,0.19010000000000002
mp-620346,Ba3InAs3,0.523099999999999
mp-623134,ZrInCu2,0.0
mp-628185,K3NaSn3Se8,1.4211
mp-6309,La3Cu4(P2O)2,0.0
mp-635413,Cs3Bi,0.35739999999999905
mp-636264,La(CuSn)2,0.0
mp-637,YB4,0.0
mp-637600,Gd6CoBr10,0.0013000000000000002
mp-644838,Co2Mo4N,0.0
mp-649084,Sr2B8Ru7,0.0
mp-650503,Rb3V2Br9,0.0
mp-672338,Cs(Bi2Te3)2,0.383399999999999
mp-672657,Hf6Co16Ge7,0.0
mp-680339,Mn4Si7,0.801300000000001
mp-684619,Pr27Se40,0.0
mp-696766,CoH12(ClO3)2,3.0787
mp-709021,CaTi2(HO3)2,3.070599999999999
mp-722912,Hf3Zn3C,0.0
mp-754055,CsErO2,2.8015
mp-754322,Sr2CuO4,0.0
mp-754955,LuSiRu,0.0
mp-756827,LiMn2F9,2.2554
mp-768,TmAl3,0.0
mp-769317,Ca4Ta2O9,3.922499999999999
mp-7715,AgF2,0.0
mp-772042,LiTiVO4,0.7577
mp-773455,V2SnO7,2.6054
mp-7857,TiB,0.0
mp-8137,NpSO,0.0
mp-861881,LiGeAu2,0.0
mp-861898,Rb3GePSe7,1.5887
mp-862877,PmAg2Sn,0.0
mp-862891,PmCdAu2,0.0
mp-862964,PmSmMg2,0.0
mp-862972,AcAgAu2,0.0
mp-863675,LiPm2Ru,0.0
mp-864965,Mg2RhAu,0.0
mp-864985,MnZnIr2,0.0
mp-865005,DyI3,2.1797
mp-865010,HfGaRu2,0.0
mp-865043,MgInPd2,0.0
mp-865107,NaMgPb2,0.0
mp-865221,Dy2IrPd,0.0
mp-865228,LiScPt2,0.0
mp-865523,TiMnRh2,0.0
mp-865669,TiSiTc2,0.0
mp-865787,TmRh2Pb,0.0
mp-865816,YbPd2Pb,0.0
mp-865873,TmCdAg2,0.0
mp-865936,LiSc2Tc,0.0
mp-866114,HfTc2W,0.0
mp-867151,ScPaOs2,0.0
mp-867156,ScGaRu2,0.0
mp-867197,LiGaNi2,0.0
mp-867273,Be2CuIr,0.0
mp-867767,BeSiRh2,0.0
mp-867802,Sc2CuOs,0.0
mp-867829,LiVRh2,0.0
mp-867837,BeCrRu2,0.0
mp-867872,LiCdAg2,0.0
mp-8947,Sr(BS2)2,2.9915000000000003
mp-9208,V2B3,0.0
mp-9323,Tb2S3,0.579299999999999
mp-9372,Ba2Cu(PO4)2,0.29250000000000004
mp-9399,SmTe3,0.0
mp-946,PrIr2,0.0
mp-965,TbB2,0.0
mp-972187,ZrSiPt,0.0
mp-973839,PdAu3,0.0
mp-973908,PaFe3,0.0
mp-974492,ReTc3,0.0
mp-975064,HoReB4,0.0
mp-975726,PrAl4Co,0.0
mp-976030,PrHoMg2,0.0
mp-976159,PrErIn2,0.0
mp-976384,HoB4W,0.1995
mp-977388,HoMgSn,0.0
mp-977399,LiMgPd2,0.0
mp-977435,ZrAlRh2,0.0
mp-977571,MgRh2Pb,0.0
mp-978274,MgCd,0.0
mp-978771,Sm(BRu)2,0.0
mp-980005,AcYbRh2,0.0
mp-980054,YbPbAu2,0.0
mp-9806,KGd(CO3)2,2.7258
mp-982384,TbH3,0.003899999999999
mp-984519,NaAsSe2,1.188599999999999
mp-984836,DyB4Ru,0.0
mp-989549,Cs2PbClF6,0.0
mp-9898,BaCuAs,0.0
mp-997161,CoAuO2,0.522299999999999
mp-999544,YAg2,0.0
mvc-13324,Ca3Cr2(GeO4)3,2.9977
mp-10046,V2AsC,0.0
mp-1006278,AcEuAu2,0.0
mp-1009543,DyBiPd,0.165799999999999
mp-1009641,CoTe2,0.0
mp-1017578,HfBRh3,0.0873
mp-1018128,ScAg2,0.0
mp-1018641,Tm3AlN,0.0
mp-1018673,CoPPd,0.0
mp-1018941,PrTeCl,0.42100000000000004
mp-1025099,TbGaI,0.0
mp-1025263,Ti2NiS4,0.0
mp-1025339,Y2Fe2Si2C,0.0
mp-1025372,Y2Cr2C3,0.0
mp-1029531,Sr3ReN3,0.0
mp-10481,RbAg3Te2,0.25970000000000004
mp-1057315,Eu,0.0
mp-10636,SrSb2,0.0
mp-1065,LaSb,0.0
mp-1065609,GdTlTe2,0.0746
mp-1068431,Yb(ZnSb)2,0.0
mp-1069613,Er2BiO2,0.0
mp-1069809,BaSi3Pt,0.0
mp-1070063,CeAl3Au,0.0
mp-1071036,TbScSb,0.0
mp-1071078,NiSe2,0.0
mp-1076931,Eu(SiPt)2,0.0
mp-1077226,YbSnHg,0.0
mp-1077380,SmInPt4,0.0
mp-1077599,ScAlGe,0.0
mp-1077918,Sr2TcO4,0.0
mp-1078693,BaCdSbF,0.289699999999999
mp-1078947,Nd(AlAu)2,0.0
mp-1079093,TmSiAg,0.0
mp-1079310,CeHgPd,0.0
mp-1079388,Nd(BRu)2,0.0
mp-1079756,PrMgAg,0.0
mp-1079841,Pr(GePt)2,0.0
mp-1080469,HfCuGe2,0.0
mp-1080767,Eu(BiPd)2,0.0
mp-1080785,ThAlRh,0.0
mp-10870,Zr5ZnSb3,0.0
mp-10931,HoSF,1.300499999999999
mp-1095204,Tm2Ni2Sn,0.0
mp-1095528,Ho(Ge2Rh3)2,0.0
mp-1101842,LuNi4B,0.0
mp-1102069,LaNiP,0.0
mp-1102093,EuI2,1.230299999999999
mp-1102613,La3(ZnPt)4,0.0
mp-1102702,HfNiGe,0.0
mp-1103193,EuAlAu,0.0
mp-1103310,NbPRu,0.0
mp-1103539,Cs2CdI4,2.8822
mp-1104255,Sb2F13,0.0
mp-1104486,Tm3Ge4,0.0
mp-1104598,ErB12,0.0
mp-1105186,Cu3B5Pt9,0.0
mp-1105248,Sm3Bi4Au3,0.4495
mp-1105252,Pr3Bi4Au3,0.42410000000000003
mp-1105633,Y3Ni,0.0
mp-1106019,CaFe(GeO3)2,1.5950000000000002
mp-1106064,Ho4Ga12Ni,0.0
mp-1106369,Ce2Ge5Rh3,0.0
mp-1112476,K2AgBiCl6,2.072699999999999
mp-1112792,Cs2KAsBr6,3.021099999999999
mp-1113049,Cs2KGdCl6,3.1441
mp-1113579,Rb2TlAgF6,0.5524
mp-1113806,Rb2AgBiCl6,2.088
mp-1114681,Rb2TlAsF6,3.037099999999999
mp-11202,Y6FeSb2,0.0
mp-1121,GaCo,0.0
mp-11417,TbGa,0.0
mp-11468,NdHg2,0.0
mp-11667,Nd2(Zn2Ge)3,0.0
mp-1172875,Mn2O3,0.0775
mp-1178175,Ho2Pb2O7,0.9474
mp-1178345,EuAgO2,0.0
mp-11793,SmCuSe2,0.7716000000000001
mp-1179405,Sr(H2O3)2,0.219899999999999
mp-1179656,Rb,0.0
mp-1181500,Dy3Ge5,0.0
mp-11819,BaSnHg,0.0
mp-1183728,Co2S3,0.0
mp-1184072,Dy2PdRh,0.0
mp-1184525,GdPaRu2,0.0
mp-1185138,LaPrZn2,0.0
mp-1185142,Dy4Ga21Ni10,0.0
mp-1185285,LiAcHg2,0.0
mp-1185750,Mg2AgHg,0.0
mp-1185892,MgMnPd2,0.0
mp-1185943,MgRu2W,0.0
mp-1186206,Nb2MoRu,0.0
mp-1186438,Pm2AgAu,0.0
mp-1186451,Pm2CoCu,0.0
mp-1186472,Pm2MgRu,0.0
mp-1186486,Pm2RuPt,0.0
mp-1186630,PmPrZn2,0.0
mp-1186792,PuHg3,0.0
mp-1186795,PuPbAu2,0.0
mp-1186994,PrMg149,0.17520000000000002
mp-1187001,Sm2TlIn,0.0
mp-1187099,Sr2TlHg,0.0
mp-1187348,TbHoRh2,0.0
mp-1187370,TbPmIr2,0.0
mp-1189771,Tb7MnBr12,0.0
mp-1189832,Eu5(ZrS4)3,0.0
mp-1190178,YNiB4,0.0
mp-1190523,HoGePd,0.0
mp-1190656,SmEuCuS3,0.0
mp-1190681,ZrFe2,0.0
mp-1191365,GdPS,0.27479999999999905
mp-1191901,Nd3Mn2Sb3O14,0.0
mp-1191966,Er3ReB7,0.0
mp-1192020,Eu2CuS3,0.0
mp-1192185,DyPS,0.538899999999999
mp-1192209,As3Pb2BrO6,3.2494
mp-1192715,BaCu9Sn4,0.0
mp-1192793,PrMoBrO4,2.157
mp-1193021,Cs3SnTe3,1.4099
mp-1193593,BaHg6,0.0
mp-1193845,Ho6Al7Cu16,0.0
mp-1193952,Zr3(Ni10B3)2,0.0
mp-1194049,SmMoBrO4,2.1853
mp-1194585,AgP(OF)2,1.9768
mp-1194612,YNb(TeO4)2,2.4025
mp-1194651,Ce2ZrSe5,0.0
mp-1194848,CsTaV2O8,2.7201
mp-1194990,Sr(PPt3)2,0.0
mp-1195253,KIn(TeO3)2,2.8713
mp-1195573,Tb3(Al3Ru)4,0.0
mp-1195778,K2Mn3(AsO4)3,0.679
mp-1196112,ZnSb3XeF23,1.6604
mp-1196138,Yb14AlSb11,0.43560000000000004
mp-1196607,NaIn(IO3)4,3.0347
mp-1196832,Er6H40N8O49,2.8644
mp-1197194,Ho3Ga2,0.0
mp-1197417,BaLa2Sc2O7,3.618399999999999
mp-1197519,PW4Cl11,0.6118
mp-1197569,Zn2Ni21B20,0.0
mp-1197592,Gd(SO4)3,0.0
mp-1198309,Sc5OsCl9,0.0
mp-1199143,Nd3Zn22,0.0
mp-1199518,Sc2Ge4Mo3,0.0
mp-1200150,ZrGa2Ni,0.0
mp-1200348,Pr3Co4Sn13,0.0
mp-1200560,CsAu(IO3)4,1.949
mp-1201421,Gd2Nb2S7O30,0.029799999999999
mp-1201560,P7Pb,0.8864000000000001
mp-1201999,Y5IrBr9,0.694199999999999
mp-1203385,Lu10Mn13C18,0.0
mp-1205339,Ge(SeO3)2,3.6839
mp-1205481,Pr3(TaN3)2,0.0
mp-1205496,Y2MgSi2,0.0
mp-1205683,Cs2KCrCl6,1.5968
mp-1205759,Ba2YbUO6,2.1708
mp-1205851,DyMn2SiC,0.0
mp-1206266,K2NaCrCl6,1.4165
mp-1206278,NdInCu4,0.10559999999999901
mp-1206581,Sm2Ge2Rh,0.0
mp-1206619,Dy7(TePt)2,0.0
mp-1207031,GdGaI,0.0
mp-1207112,Lu(MnSi)2,0.0
mp-1207519,YbNi4Sn,0.0
mp-1207551,YbMoO4,3.3624
mp-1207558,YbGa2Ag,0.0
mp-1207797,Y3Ga9Cu2,0.0
mp-1207825,Y4MgNi,0.030600000000000002
mp-1208283,Ti5CoSn3,0.0
mp-1208872,SmAl8SiAu4,0.0
mp-1209147,Sm6Ti4Al43,0.0
mp-1209239,RbSc(WO4)2,3.1917
mp-1209583,Rb2LaNb5O15,1.8938000000000001
mp-1209691,Sm12InCo6,0.0
mp-1209712,Pr5Ge3O13,0.0
mp-1210060,Rb2CeI5,0.3226
mp-1210077,Nd12(OsC3)5,0.0
mp-1210514,Pr3Lu2(GaO4)3,3.1013
mp-1210661,LuZnSn,0.0
mp-1210767,Pr12InCo6,0.0
mp-1211142,Li5IO6,2.5979
mp-1212084,K2CeI5,0.18429999999999902
mp-1212179,K2Cr2(PO4)3,0.0
mp-1212246,Ho5(In2Pt)2,0.0
mp-1212343,Li22(Cu3Si2)7,0.04870000000000001
mp-1212354,Ho3(Si3Pd10)2,0.0
mp-1212445,Hf2Si4Mo3,0.0
mp-1212706,FeAgBr4,0.0
mp-1213435,Er6Nb4Al43,0.0
mp-1213799,CeHf2F11,0.13740000000000002
mp-1213824,Ce4Ge3,0.0
mp-1214247,Ca3In2(GeO4)3,2.6717999999999993
mp-1214596,Ba6Ho2Ga4O15,3.5461
mp-1214897,Al2(Ni7B2)3,0.0
mp-1215329,ZrAl2Zn,0.0
mp-1215704,Zr3Mn8Al,0.0
mp-1216072,Y2Ga3Ag,0.0
mp-1216797,TiTl2(TeO4)3,1.634399999999999
mp-1216838,TiNbBiO6,2.3923
mp-1217044,TiAlNi6,0.0
mp-1217094,Ti3Nb3Sn2,0.0
mp-1217211,U3SiPt5,0.0
mp-1217473,TbHoFe4,0.0
mp-1217482,TbHoCo4,0.0
mp-1218578,SrBiNO5,2.2404
mp-12194,K2Zn2(MoO4)3,3.644999999999999
mp-1219630,Re6Se7Br4,1.6949
mp-1219919,Pr2CdSb4,0.0
mp-1220043,Pr9Al5S21,2.257999999999999
mp-1220303,Nd6Cd(SiS7)2,1.8658000000000001
mp-1220403,Nd2Ga5Cu3,0.0
mp-1221072,NaSr11(PtO6)3,0.0
mp-1221749,Mn3FeP4,0.0
mp-1222465,Lu4Co3,0.0
mp-1222602,Li2SiAu,0.0
mp-1222853,LaGa3Cu,0.0
mp-1223908,Hf2Ga3Cu,0.0
mp-1226075,CoTeO4,0.0
mp-1226991,Ce2Al6CuAu,0.0
mp-1227201,Cd2Hg13(As2Cl3)4,1.4033
mp-1227319,Bi3Sb,0.0761
mp-1228096,K4Cu4Sn7,0.7236
mp-1228755,Ba8ZrNb19O36,0.0
mp-1229004,AlCr4CuSe8,0.0
mp-1236862,TbSbO4,2.3325
mp-1246243,Ca8Mn3N8,0.0
mp-12504,CeZnPt,0.0
mp-12742,MgPd3,0.0
mp-12929,SmAsO4,3.7085
mp-12977,Dy2CdPd2,0.0
mp-1308812,SrLa2(CoO3)3,0.42110000000000003
mp-1319472,Li2V3CoO8,0.0
mp-13348,CsUCuS3,0.0
mp-1438,ZrIr3,0.0
mp-1448,NdGa,0.0
mp-1475,Be12Mo,0.0
mp-15603,HoB2C,0.0
mp-15695,YAsPt,0.0
mp-15922,Gd2ReO5,0.0
mp-16377,Ho(SiPt)2,0.0
mp-16867,YbCu(WO4)2,0.19330000000000003
mp-17507,NaVAsO5,1.5086
mp-17741,Sm2ReO5,0.8647
mp-17746,HfGePd,0.0
mp-17822,Dy2MoO6,2.1909
mp-17870,KYb(WO4)2,0.0
mp-18133,Zr2Co4P3,0.0
mp-18504,Ca3(GeAs2)2,0.621799999999999
mp-18606,ErGe2Ir,0.0
mp-18632,SrNi5P3,0.0
mp-18743,CaMnP2O7,3.5488
mp-18960,ErVO4,2.9667
mp-19339,LaNiO3,0.0
mp-19345,ErMn2O5,1.236899999999999
mp-19714,GdGeRu,0.0
mp-20001,SrSnPt,0.0
mp-20048,U(Ni2P)2,0.0
mp-20067,Na5OsO6,0.0
mp-20176,DyPb3,0.0
mp-20312,V2WO6,0.0
mp-20390,PrSnPt,0.0
mp-20431,Ca2FeSbO6,1.5503
mp-20608,Tb2In,0.0
mp-20862,CoSe2,0.0
mp-20910,LaGe3Ir,0.0
mp-21052,Tb2InPd2,0.0
mp-21135,Pr3InO,0.0
mp-21389,Eu3AuO6,0.0
mp-2149,NpIr2,0.0
mp-21712,Tb2Ti3Ge4,0.0
mp-21725,Mg6Ni16Ge7,0.0