material_id,pretty_formula,band_gap
mp-560268,K2Mo3(AsO5)4,2.6654999999999998
mp-560404,InHSeO4,3.4401
mp-560406,K8Zr(MoO4)6,3.8834
mp-560663,Rb(CoS)2,0.0
mp-560702,BaHgRuO5,0.3148
mp-560778,Na9V14O35,0.49260000000000004
mp-561406,K3Nb6VO19,2.3407
mp-562230,Rb3(Cu4S3)2,0.0
mp-562796,NaCoPO4,3.2132
mp-5670,LiTi2O4,0.0
mp-567182,NaW6CCl18,0.095599999999999
mp-567347,Li2AgSn,0.0
mp-567427,Yb(GeRh)2,0.0
mp-568049,NdMgSi2,0.0
mp-568320,Y4Sb3,0.0
mp-568804,Hg9Bi2(AsBr3)4,1.1979
mp-568809,Ba5Al5Pb,0.0
mp-568896,La(AlBr4)3,2.6086
mp-568912,Be12Nb,0.0
mp-568931,YbNiSb,0.0
mp-568936,Ag2Se,0.0
mp-569003,Mg2Co12As7,0.0
mp-569149,K2TeCl6,2.647199999999999
mp-569225,Mo6PbI14,1.846899999999999
mp-569380,BaCeI4,0.0
mp-569425,Pr23Mg4Ni7,0.0
mp-569431,Tb3P4Pd7,0.0
mp-570147,Sc6Si11Ni18,0.0
mp-570411,K12In2Se9,1.646
mp-570525,LaZnRh,0.0
mp-570684,ZrOs2,0.0
mp-570784,Hf2Al3C4,0.0
mp-570928,U4Ga12Rh,0.0
mp-571035,OsCl4,0.0
mp-571367,Hf(CoSi)2,0.0
mp-571376,Dy4CdCo,0.0
mp-572598,Cs2Ge2S5,2.4126
mp-574159,CeAs2Pd3,0.0
mp-574339,Y2Ni7,0.0
mp-5820,Ce(CoP)2,0.0
mp-582108,Sr21(Cd2Bi9)2,0.169
mp-582826,GdRuC2,0.0
mp-583581,W2NCl9,1.7818
mp-5850,ErSnPd2,0.0
mp-602268,Zr2In5Ni,0.0
mp-606777,Eu(InAu)3,0.0
mp-607124,Dy5(In2Ni)2,0.0
mp-607721,NdZnRh,0.0
mp-607917,La21Fe8Sn7C12,0.0
mp-614455,GdCu,0.0
mp-616597,ReHgO4,2.758
mp-623854,NaNb3O8,2.5211
mp-626412,In(HO)3,2.7719
mp-629443,Li2EuGeS4,0.295799999999999
mp-6362,Sr2TbIrO6,0.0
mp-637194,Cs3Sc2Cl9,3.9433
mp-638553,Ba2InIrO6,0.0
mp-638685,CsEuBr3,1.0355
mp-640922,CeInPt,0.0
mp-643108,Yb4Mg3H14,3.150699999999999
mp-643912,Ca5Ge3H,0.0
mp-644389,Li2H2Pd,0.0
mp-645,TbP,0.0
mp-645568,TlCr(MoO4)2,2.7802
mp-6563,TbAl9(Fe2Si3)2,0.0
mp-662547,PSeCl9,2.2439999999999998
mp-663,NdGe,0.0
mp-667344,Rb3Nb5P2O19,2.8349
mp-669436,ZrAsPd,0.0
mp-672652,Ta6Co16Ge7,0.0
mp-673833,Li7VAs4,0.9021999999999991
mp-674187,Ba(IrO3)2,0.0
mp-680308,Re(Se2Cl3)2,0.144799999999999
mp-680417,CeSb(SBr)2,0.0
mp-698317,NdH4C3O8,3.2944
mp-7003,CePPd,0.0
mp-704467,Rb2U2WO10,1.9222000000000001
mp-7061,NdZnAsO,0.8589000000000001
mp-7108,Tm(SiPt)2,0.0
mp-7171,TmP,0.0
mp-722979,K2Zn(H2N)4,1.9868000000000001
mp-7273,Te8Rh3,0.0
mp-7332,NdP5,0.06329999999999901
mp-7343,Y3Pt,0.0
mp-749,SmN,0.021500000000000002
mp-755804,Lu6TeO12,3.034599999999999
mp-757031,Mg2TiO4,3.3894
mp-759,La2Sb,0.0
mp-771158,Ba2B2O5,3.986099999999999
mp-771762,Ho3Sb5O12,3.1298
mp-8093,Ba2Cd,0.0
mp-818,SiRh,0.0
mp-861608,PrNiB4,0.0
mp-862336,Sc2IrPd,0.0
mp-862673,LiY2Ru,0.0
mp-862681,ErMg3,0.0
mp-862723,ScTc2Mo,0.0
mp-862883,CaPmHg2,0.0
mp-862884,CaPmPd2,0.0
mp-862896,PmCdRh2,0.0
mp-864741,Yb2TlPb,0.0
mp-864922,MgZnAu2,0.0
mp-864951,MnAlOs2,0.0
mp-864961,Be2PdPt,0.0
mp-864989,Mn2AlRe,0.0
mp-865081,NaAcTe2,0.9203999999999991
mp-865168,Be3Ni,0.0
mp-865224,Th2BiTe,0.0
mp-865351,Tm2ZnRu,0.0
mp-865655,TiNbTc2,0.0
mp-865774,YbInRh2,0.0
mp-865856,PaBi3,0.0
mp-865889,YbBe13,0.0
mp-866040,CaCeHg2,0.0
mp-866219,HfSnRu2,0.0
mp-866286,AcMg,0.0
mp-866641,K2Na(H2N)3,2.4531
mp-867143,SmGa3,0.0
mp-867258,LiZnPd2,0.0
mp-867307,Be2RuAu,0.0
mp-867320,Ho2ZnRu,0.0
mp-867919,ErNbRu2,0.0
mp-867926,LiInPd2,0.0
mp-9042,Np(SiPd)2,0.0
mp-9293,EuGeAu,0.0
mp-9333,La3TiSb5,0.0
mp-9390,ErCuGe,0.0
mp-9441,Ho(CrGe)6,0.0
mp-9546,Yb2C3,0.0
mp-9612,La3Ir3O11,0.0
mp-973391,LiSiB6,1.6991
mp-977176,NaTcO3,0.0
mp-977359,CaSnAu2,0.0
mp-977397,TbCdPd2,0.0
mp-977443,ZrGeRu2,0.1517
mp-9784,BaBAsO5,3.543599999999999
mp-979430,YLuTl2,0.0
mp-980665,Zn2CuIr,0.0
mp-982511,HoGa2Pd,0.0
mp-982725,Nb2RuW,0.0
mp-984048,CeYIn2,0.0
mp-984767,DyHoIn2,0.0
mp-989567,Cs2RbTlF6,3.8708
mp-989584,Ca6Sn2NO,0.0
mp-989610,Cs2NaInH6,1.3021999999999991
mp-9948,V5Te4,0.0
mp-996944,Cs2TlInBr6,2.1952
mp-998761,TlNiF3,3.550699999999999
mp-999470,NaNdS2,2.2466
mvc-10388,BaZnCuF7,0.5718
mp-1001787,LiRh3,0.0
mp-1006242,EuInNi5,0.0
mp-1017985,TiAg,0.0
mp-1018147,EuPd,0.0
mp-1018149,ScCu2,0.0
mp-1018151,NbPd2,0.0
mp-1018763,Li3DySb2,0.0
mp-1018815,NdSbPd,0.0
mp-1019266,SmTe2,0.0
mp-1019727,NaEuGeO4,0.0
mp-1019775,K2Ge(S2O7)3,3.7754000000000003
mp-1021497,Li2SiSnS4,1.9994
mp-1025013,GdCu4Pd,0.0
mp-1025517,Ti2InN,0.0
mp-1031,GdCd,0.0
mp-10434,K2UTe3,0.0
mp-10516,Dy6FeTe2,0.0
mp-1063914,VFeCoGe,0.0
mp-1066078,BiPt,0.0
mp-1067925,SrSi3Au,0.0
mp-1068364,CeSi3Os,0.0
mp-1072856,PrZn2,0.0
mp-1077361,BaAsAu,0.050100000000000006
mp-1078441,Ba2UCu2Se5,0.0
mp-1078624,LaCoC2,0.015000000000000001
mp-1079080,CsCd4As3,0.5688
mp-1079238,ZrReSi,0.0
mp-1079704,Tb3Sn7,0.0
mp-1079968,UGaFe,0.0
mp-1080105,CeAsRuO,0.0
mp-1080131,Cu2SiHgTe4,0.17879999999999902
mp-1080703,PrAlPd,0.0
mp-1080709,NdAu,0.0
mp-1080768,LuSnPd,0.0
mp-1084759,TbSnRh,0.0
mp-1087218,Pr(NiAs)2,0.0
mp-1087496,NpCuPO,0.0
mp-1091370,LuInAu,0.0
mp-1091398,YSiAg,0.0
mp-1095137,UFeC2,0.0
mp-1095372,MnBi4S7,0.6665000000000001
mp-1095561,NdNi3,0.0
mp-1095572,TbAlAu,0.0
mp-1101891,LaSbSe,0.126199999999999
mp-1101945,YbNi4B,0.0
mp-1102143,ErRe2,0.0
mp-1102728,Dy2Al,0.0
mp-1102762,SmAsS,0.29460000000000003
mp-1103280,YGaIr,0.0
mp-1103572,NdGaPt,0.0
mp-1104206,Ho3Pd4,0.0
mp-1104856,La3Pt4,0.0
mp-1105839,Sm(CoB)4,0.0
mp-1106363,Ho3Sb4Au3,0.5575999999999991
mp-11100,YbIn5Rh,0.0
mp-11102,YbInRh,0.0
mp-1113046,Cs2KInBr6,2.3646000000000003
mp-1113580,Rb2TmAgCl6,3.7384
mp-1118,SiNi2,0.0
mp-11373,DyTlPd,0.0
mp-11418,TbGa3,0.0
mp-11575,YTl,0.0
mp-11668,Sm2(Zn2Ge)3,0.0
mp-11792,PrCuSe2,0.745499999999999
mp-1182034,CeH14Cl3O7,0.095
mp-1183224,AgAu3,0.0
mp-1184159,ErHfRu2,0.0
mp-1184217,ErMgRh2,0.0
mp-1184321,EuMg2,0.0
mp-1184354,Gd2IrAu,0.0
mp-11844,Ho6GaCo2,0.0
mp-1184415,Gd2AgRu,0.0
mp-1184589,HfTc2Mo,0.0
mp-1185270,LiNpRh2,0.0
mp-1186460,Pm2GaSn,0.0
mp-1186476,Pm2TlSn,0.0
mp-1186553,PmDyZn2,0.0
mp-1187121,Sr2MgIn,0.0
mp-1187384,TbTmIn2,0.0
mp-1187844,Zr3Pb,0.0
mp-1187922,ZnInRh2,0.0
mp-1188159,Zr5CuBi3,0.0
mp-1188392,LiInS2,2.1961
mp-1188434,Y5Tl3,0.0
mp-1188599,Gd3Sb4Au3,0.5484
mp-1189317,Mg2CrB2Ir5,0.0
mp-1190125,Ba(BrF4)2,3.2327
mp-1190136,SrAl2Au3,0.0
mp-1190245,Gd2Hf2O7,3.3504
mp-1190295,CsPr2Ag3Te5,1.1305
mp-1190889,SrGdCuSe3,1.0134
mp-1191149,Rb2U(PtS2)3,0.0
mp-1191222,Dy4Ga16Co3,0.0
mp-1191561,Tb2Fe12P7,0.0
mp-1191806,Mg3TiNi2,0.0
mp-1191887,Cs2U(PdSe2)3,0.0
mp-1191954,Y3(GaNi3)2,0.0
mp-1192557,Ba4Li2(CdAs2)3,0.34890000000000004
mp-1192670,Hf9Mo4P,0.0
mp-1193099,Ba(YSe2)2,1.386299999999999
mp-1193242,Cs2CoCl4,0.757599999999999
mp-1193707,Ti2(Co7B2)3,0.0
mp-1194177,Ta3(Ni10B3)2,0.0
mp-1195470,Rb4U3(AsO8)2,1.9497
mp-1195520,Hf3Sb7Pd,0.0
mp-1195789,Sr5(IO6)2,2.4845
mp-1195978,K2Pd(S2O7)3,1.4223
mp-1196184,LaV2IO9,2.5572
mp-11964,Ce2CdPt2,0.0
mp-1196513,ScGe2Ru,0.0
mp-1196514,KS3,1.8027000000000002
mp-1197062,Rb3P11,1.9328
mp-1197149,ReSi2(PO5)3,2.1169000000000002
mp-1198053,Cs3Ag2Sb3S8,1.1336
mp-1198338,Lu10In20Ni9,0.0
mp-1198370,Ca11Sn3C8,0.6625999999999991
mp-1199106,Tm5Pt4,0.0
mp-1199531,Gd5C2Cl9,0.589299999999999
mp-1199732,Yb6Ti4Al43,0.0
mp-1200559,Er2Ni7,0.0
mp-1200696,Ce5Ge4,0.0
mp-1201825,Pr3Sn13Ir4,0.0
mp-1201868,Pr4As2S9,1.8339999999999992
mp-1202357,CsRe3(Se2Br)2,1.4435
mp-1202520,Sm2HfS5,1.141599999999999
mp-1202879,NaGa(SeO3)2,3.2256
mp-1203026,CeGa8Pd3,0.0
mp-1203560,La15Cd2Rh5,0.0
mp-1205622,YPRu2C,0.0
mp-1205707,Tb2MgCu2,0.0
mp-1205904,Y6MnBi2,0.0
mp-1206300,Ce3(GeRh)4,0.0
mp-1206335,PrSiNi,0.0
mp-1207079,SrH3Pd,0.0
mp-1207118,Ba2CdMoO6,2.5833
mp-1207199,PrAsPd,0.0
mp-1207507,Zr6CoI14,0.0
mp-1207621,Yb3(Si3Pd10)2,0.0
mp-1207711,Y2(Al3Rh)3,0.0
mp-1207879,UV5P3,0.0
mp-1208008,Tm2Si3Pd,0.0
mp-1208024,Tm12Co5Bi,0.0
mp-1208336,TbCoB4,0.0
mp-1208564,TaVP,0.0
mp-1208749,SmBC,0.0
mp-1209360,Pr5Bi3Br,0.0
mp-1209554,PrAlRh,0.0
mp-1209682,Pr4CdPd,0.056699999999999
mp-1209742,Pr2MgPtO6,2.052799999999999
mp-1209940,NaSmCu2F8,0.8104
mp-1209947,Sc44Ru7,0.0
mp-1209975,Nd3Se3N,0.9432
mp-1210044,NdEu2BeO5,0.0
mp-1210244,Pr23Mg4Pt7,0.0
mp-1210317,Rb2Mo3P3O17,2.3576
mp-1210429,Na3CrO4,1.041
mp-1210928,Lu4InRh,0.0
mp-1211805,Pr8Sb14Rh17,0.0
mp-1211966,K3GdCl6,2.7717
mp-1212117,HoCoB4,0.0
mp-1212232,Ho4Ga12Pd,0.0
mp-1212925,Er3(Al3Ru)4,0.0
mp-1213207,Er5Ni2Sb,0.0
mp-1213281,Eu2MoO6,0.0
mp-1213500,LaN2Cl5,2.233899999999999
mp-1213723,Cs3IO5,1.476999999999999
mp-1213895,Ce3NbSb5,0.0
mp-1214500,Cs2Re3Se4I3,2.0776
mp-1214552,Ba4Cu3Si20,0.0
mp-1214720,Ba2Gd(CuO2)4,0.0
mp-1215,Ti2O,0.0
mp-1215380,Zr6Al7Cu16H3,0.0
mp-1215494,YbZnCuP2,0.0
mp-1215646,YbSn2BiO7,0.0
mp-1216255,Y2(AlNi)5,0.0
mp-1216261,Y20Si12C,0.0
mp-1217605,TbCuPbS3,1.655
mp-1217699,Tb2InAg,0.0
mp-1217701,Tb2CuPt,0.0
mp-1218188,SrLaB12,0.0
mp-1219,BaGa2,0.0
mp-1219215,Sm2VFeO6,1.3222
mp-1219947,Pr8Br13N3O,3.133299999999999
mp-1220253,Nd4Mn3NiO12,0.22529999999999903
mp-1220799,NbNi,0.0
mp-1220951,NaTiPO5,2.8695
mp-1221432,Na2(CrSe2)3,0.0
mp-1221609,MnGa(CuSe2)2,0.0531
mp-1221696,MnFePd6,0.0
mp-1221970,Mn3Nb8FeO24,2.5342000000000002
mp-1222454,Lu(AlCu)6,0.0
mp-1222525,LiAlGeO4,3.8890000000000002
mp-1222564,LiCoCuF6,0.1915
mp-1222711,Li2GeTeO6,3.046999999999999
mp-1222722,Li(ZrS2)2,0.0
mp-1222769,Li2Ga7,0.0
mp-1223931,K(Ti3Se4)2,0.0
mp-1224359,K5Sm(MoO4)4,3.9130000000000003
mp-1224691,Fe2SbTe3,0.0
mp-1224902,GdErAl6,0.0
mp-1224986,FeNiP6,0.0
mp-1225214,EuAl3Ag2,0.0
mp-1225297,DyAlNi4,0.0
mp-1225325,Dy2Ga3Cu,0.0
mp-1227020,CaZnAg,0.0
mp-1227364,Ca5(Si2Au3)2,0.0
mp-1227669,Ca4Al6CrO16,2.7987
mp-1228215,Cs3(Cr5Se8)4,0.0
mp-1228244,Ba3Er2MoO9,2.040499999999999
mp-1228670,K38Nb7As24,0.0131
mp-1228701,Al4Ge2W3,0.0
mp-1228914,Al4CrNi15,0.0
mp-12584,Th2CrN3,0.0
mp-12612,Ba3Ag2,0.0
mp-1274387,La2ZnCoO6,0.0
mp-13095,YAlNi,0.0
mp-13139,SrLiGe2,0.0
mp-13203,ScCuSn,0.0
mp-13511,Tm4In(NiGe2)2,0.0
mp-13841,IrF4,0.0
mp-1401,ZrZn2,0.0
mp-14249,Th(PS3)2,2.5564
mp-14466,KLi6IrO6,0.0
mp-1470,Nb12O29,0.0
mp-1474,Re3P4,0.0
mp-1555,V3Sb,0.0
mp-15642,SrMgSi,0.0713
mp-16272,Ce(FeP3)4,0.538
mp-16334,Fe3PdN,0.0
mp-1648,Al12Re,0.0
mp-16503,HoAl2Ni,0.0
mp-17499,K7Nb(SO4)6,2.8508
mp-17942,MgNi2P,0.0
mp-17953,MgNb2O6,3.4118
mp-17985,Ca5(GaSb3)2,0.020599999999999
mp-182,SrGa2,0.0
mp-18531,K2Cd3Te4,1.4375
mp-18785,CrWO4,0.0
mp-19107,LiMnVO4,1.9029
mp-19217,ErMnO3,0.0
mp-19226,NaFePO4,3.8276000000000003
mp-19361,Cr2(SO4)3,0.0
mp-1953,TiAl,0.0
mp-19794,EuSnP,0.0
mp-19811,USnRu,0.0
mp-1994,HfB2,0.0
mp-19987,Pa3Sb4,0.0
mp-20049,LiFeP,0.0
mp-20222,Sr2NbInO6,3.41
mp-20400,Ce(GePt)2,0.0
mp-20415,GdPbAu,0.0
mp-20571,DySiPt,0.0
mp-20706,EuPPd,0.0
mp-20717,CrAs,0.0
mp-20800,ZrIn2,0.0
mp-20869,GdTiGe,0.0
mp-21054,PrSnPd,0.0
mp-21115,CeSi,0.0
mp-21248,NbSiIr,0.0
mp-21509,LaMgGa,0.0
mp-21587,Mg6Ni16As7,0.0
mp-21601,Tb(SiNi5)2,0.0
mp-21618,NdAl3(PbO4)2,2.985699999999999
mp-21742,Ba5AlIr2O11,0.0
mp-21871,CeCrS3,0.0
mp-22024,GdVO4,2.9747
mp-22041,HoGeRu,0.0
mp-22167,Zr6Ga2Co,0.0
mp-22188,DyCuSn,0.0
mp-2223,GaPt2,0.0
mp-22322,EuInPd,0.0
mp-22453,YbGePt,0.0
mp-22642,Zr2Se,0.0
mp-22656,GdInPt2,0.0
mp-23093,Sr2NdBiO6,1.7308
mp-23244,UI3,0.0
mp-23310,Yb4Bi3,0.0
mp-23440,Y6C2I7,0.0
mp-23544,Bi4Br2O5,2.5139
mp-23614,SrNb2Bi2O9,2.6757
mp-24534,CaH4SeO6,3.8836
mp-259,AlMo3,0.0
mp-27388,Ba(SiNi)2,0.0
mp-27439,TmIO,3.411
mp-27454,BaLi2Si,0.0
mp-27793,Nb2Se,0.0
mp-2781,ScPd,0.0
mp-27826,K2MoCl6,0.0
mp-28179,NaTaCl6,2.902
mp-28214,TiBr3,0.015199999999999
mp-2832,Cr2Se3,0.0
mp-28378,HfFeSi2,0.0
mp-28641,ThB2O5,4.8767
mp-287,UF4,0.0
mp-28830,Na2ZnBr4,3.7462
mp-29036,Ba(YS2)2,1.757499999999999
mp-29344,LiGaCl3,3.6888
mp-2947,SmB2Rh3,0.0
mp-29561,CaSnAu,0.0
mp-29677,Ho3AlC,0.058699999999999
mp-29779,Lu3Ni2Ge3,0.0
mp-29824,La3RuI3,0.05210000000000001
mp-29880,Sm2SCl4,3.5256
mp-30292,Nd4Se3N2,1.391499999999999
mp-30307,DyBiRh,0.0
mp-30491,MgCd3,0.0
mp-30531,Ta2Se8I,0.11470000000000001
mp-30622,Dy5Ru2,0.0
mp-30938,PAuS4,1.4047
mp-30962,K4Ge9O20,3.3883
mp-31090,Er2Pd2Pb,0.0
mp-31259,Bi(IO3)3,2.8849
mp-31509,BaIn,0.0
mp-3183,DyBRh3,0.0
mp-32311,Re2NiO8,3.9714
mp-32983,Nb3S5,0.0
mp-4072,Sm(SiRu)2,0.0
mp-4075,TbZrSb,0.0
mp-454,NaGa4,0.0
mp-4578,Sr2GeS4,2.3198
mp-4655,SrTl2O4,0.42439999999999906
mp-4672,TbPS4,2.176999999999999
mp-4997,ZrGeS,0.0
mp-505031,Cs4Cu3F10,0.123
mp-5053,KCrF4,3.1033
mp-505615,Sr3EuRhO6,0.0
mp-510439,In2Pt3,0.0
mp-510486,Ta3Al2CoC,0.0
mp-510541,RbGd(WO4)2,1.3189
mp-5219,Ho(SiOs)2,0.0
mp-527,BaCd,0.0
mp-540788,K2Mo3O10,3.3526
mp-541113,Cs3P7,2.3442
mp-541350,KMo(PO4)2,2.4812
mp-542389,Dy(SiNi5)2,0.0
mp-553934,Si4Mo2P4O23,2.7278000000000002
mp-554207,TaBi4BrO8,1.341399999999999
mp-554218,Ti4P6PbO24,2.7987
mp-554227,CaU(SeO4)2,1.9516
mp-555805,AlSCl7,2.5238
mp-555880,ZnBi2B2O7,2.5368
mp-556046,SrGa2B2O7,3.9941
mp-556330,Cs2Ga2B2O7,3.7986
mp-557958,Cs2KNiF6,0.0
mp-558153,Ba4Nb2(OF4)3,3.3536
mp-558621,Ce(BO2)3,0.0106
mp-559052,LiNb3(Bi2O7)2,2.6654
mp-559635,Sr3CaIrO6,0.0
mp-5597,Ca(FeP)2,0.0
mp-560021,AuS3(O3F)3,1.5561
mp-560928,Sb2IBr2F11,1.6859000000000002
mp-567210,TbInAu2,0.0
mp-567588,DyInRh,0.0
mp-567769,Ca(SiPd)2,0.0
mp-567780,RbSn2Br5,2.4249
mp-568113,Ba(AsRh)2,0.0
mp-568184,Lu(BRu)4,0.0
mp-568548,Mg10B16Ir19,0.0
mp-568785,NaAl3NiCl12,1.2570000000000001
mp-568828,Hg6BiSb4Br7,1.0313
mp-568953,LuAg4,0.0
mp-569050,NaW6NCl18,0.6025
mp-569671,ZrSb,0.0
mp-570419,Zr3Al3C5,0.0
mp-570556,Sr(InAu)2,0.0
mp-571323,La12C6I17,0.0
mp-573891,K2Ag4Se3,0.004200000000000001
mp-579614,Y16B4C8I19,0.23620000000000002
mp-580439,UFe5Si3,0.0
mp-582572,ErNiGe2,0.0
mp-605878,La4MgRu,0.0
mp-616490,KYb(PO3)4,0.0424
mp-6205,Ba2Ho(CuO2)4,0.0
mp-627439,Mn3GaN,0.0
mp-6286,YbNi2B2C,0.0
mp-648086,GdGa2Co,0.0
mp-669431,EuBi2BrO4,0.0
mp-669692,NbPd3,0.0
mp-672212,NaNb13O33,1.707999999999999
mp-672258,CsHo2Cu3Se5,1.293499999999999
mp-672294,Eu(CoSi)2,0.0
mp-672705,YbS2,1.6442
mp-675076,Sr5U5O18,0.019499999999999
mp-675691,Ni2RhS4,0.0
mp-677445,Y4SiS3,0.0
mp-685352,Ca2NF,1.1674
mp-696189,TlH6(NO4)3,1.8545
mp-698610,Rb(WO3)6,0.0
mp-6992,Eu(NiAs)2,0.0
mp-7120,Sm(AlSi)2,0.0
mp-7347,La(BRu)4,0.0
mp-7352,MgCuP,0.042699999999999
mp-746,Sr5Si3,0.0
mp-753192,Yb4Sb2O,0.6568
mp-753421,Gd6WO12,2.784799999999999
mp-754158,KNdO2,3.7522
mp-755673,DyWO4,1.9847000000000001
mp-755893,CaBiO3,0.6886999999999991
mp-757494,K(WO3)4,0.0
mp-758431,Rb3Mn16O32,0.0
mp-760482,F2,3.095099999999999
mp-770,DyCd,0.0
mp-770806,Sm2TiO5,3.335999999999999
mp-772788,Ba2Cu2O5,0.7714000000000001
mp-773051,Li2Mn3(SeO3)4,2.768399999999999
mp-775158,Li8Mn13Cr3O32,0.10939999999999901
mp-779763,Tb2Ti2O7,3.0138
mp-7924,Li2Sn5,0.0
mp-793,Ca5Si3,0.0
mp-8121,SmCuSi,0.0
mp-8436,Ta2PdSe6,0.0
mp-8601,Te4Mo3,0.013900000000000001
mp-861892,DyInRh2,0.0
mp-861980,PaGaTc2,0.0
mp-862260,ScZn3,0.0
mp-862725,ScTc2W,0.0
mp-862774,LiInPt2,0.0
mp-862781,AlCrRu2,0.0
mp-862829,PaTe2Au,0.0
mp-862833,PaZnAu2,0.0
mp-862935,Li2PmSn,0.0
mp-862936,PmMgAg2,0.0
mp-862980,PmAl3,0.0
mp-863696,Pm2MgSi,0.0
mp-864769,LiYb2Tl,0.0
mp-864798,HfZnIr2,0.0
mp-864803,NaAcAu2,0.0
mp-864934,MgAg3,0.0
mp-864942,Mg3TcH7,2.6427
mp-865253,LuMgPd2,0.0
mp-865274,TlInS2,1.3050000000000002
mp-865297,Ho2InAg,0.0
mp-865308,Be2CuRh,0.0
mp-865320,Lu2PdRu,0.0
mp-865341,Tm2InOs,0.0
mp-865355,Zn3Pt,0.0
mp-865438,LuTlRh2,0.0
mp-865502,YAgHg2,0.0
mp-865505,Lu2InAg,0.0
mp-865810,TiTc2W,0.0
mp-865834,Yb3GeO,0.327999999999999
mp-865840,Ti2TcIr,0.0
mp-866033,AlZnRh2,0.0
mp-866207,LuCdPd2,0.0
mp-867152,EuMgGe,0.0
mp-867216,TaFeRu2,0.0
mp-867223,LiGa2Ni,0.0
mp-867341,CsAcTe2,1.0364
mp-867501,Sc2Ni,0.008399999999999
mp-867626,Tl3Os3O10,0.0
mp-867826,DyMgHg2,0.0
mp-867867,SmMgAu2,0.0
mp-8790,Ba2CuO3,0.0
mp-951,CeRh2,0.0
mp-9682,Na3AlSe3,2.7204
mp-9690,Ca(AlGa)2,0.0
mp-972494,SmMg3,0.0
mp-973114,HoLuRu2,0.0
mp-973634,Ho(AlC)3,0.0
mp-974042,Nd2Co12P7,0.0
mp-976039,LuBe13,0.0
mp-976190,K3TlAu5,0.0
mp-977380,LiMg2Pd,0.0
mp-977453,Ca2CdIn,0.0
mp-977546,Pm2ZnGa,0.0
mp-977563,LiNbIr2,0.0
mp-979418,Sm2(ReB2)3,0.0
mp-983312,TmLuRu2,0.0
mp-989545,Rb2NaSbCl6,3.133899999999999
mvc-11744,Ca(TiS2)4,0.0
mvc-4795,Mg(MoO2)2,2.2744
mp-1005792,Sm2CuAs3O,0.0
mp-10069,Ce(P3Ru)4,0.171799999999999
mp-1007665,HoTlS2,1.5866
mp-1017987,Tc3N,0.0
mp-1018086,CePd,0.0
mp-1018153,HfAu2,0.0
mp-1018156,Hf2Cd,0.0
mp-1018698,EuHgPb,0.0
mp-1019093,PaP2,0.0
mp-1019101,SmGeAu,0.0
mp-1019614,Cs3Y(PO4)2,4.4731
mp-1025181,Tm2Cr2C3,0.0
mp-1025324,SiSnPt5,0.0
mp-10333,Pr(ZnP)3,0.028599999999999
mp-10344,Ba2PrNbO6,2.9817
mp-1046,NbSn2,0.0
mp-1069594,LaSi3Ru,0.0
mp-1072182,HoB2Ir3,0.0
mp-1077154,SmCu2,0.0
mp-1077210,LuGa2,0.0
mp-1077556,TbSnGe,0.0
mp-1078098,UGa5Fe,0.0
mp-1078870,UGaRh,0.0
mp-1078895,Mn3Pd5,0.0
mp-1079110,Hf3AlN,0.0
mp-1079311,Nd(PRh)2,0.0
mp-1079403,Sr2CoOsO6,0.0
mp-1079596,Er2NiSn6,0.0
mp-1079785,Y2CdGe2,0.0
mp-1079796,Ti3Pd,0.0
mp-1080749,CsFeO2,1.976
mp-1080775,PrInNi2,0.0
mp-10848,AsPdS,0.0
mp-1087517,NdZnPd,0.0
mp-1095046,La(GeIr)2,0.0
mp-1095145,TiReSi,0.0
mp-1095579,TmAlPt,0.0
mp-1097,TaB,0.0
mp-10973,K2Ga3CuSe6,1.0807
mp-1101165,YbBiO3,0.0
mp-1101397,SmHO2,3.9025
mp-1102018,HfP2,0.0
mp-1102047,LuCoSn,0.0
mp-1102520,ZrSiMo,0.0
mp-1102662,CaMgPd,0.0
mp-1102669,ErGaPt,0.0
mp-1102907,YbNiGe,0.0
mp-1102975,EuGaPt,0.0
mp-1103010,Sm(Ge2Rh3)2,0.0
mp-1104069,Y(Ni2As)2,0.0
mp-1104611,Gd3CI3,0.061099999999999
mp-1105057,Yb3Pd4,0.0
mp-1105674,Mg2BeB2Ir5,0.0
mp-1105955,Er3Cu3Sb4,0.488699999999999
mp-1105961,ThTaN3,0.6518
mp-1111649,K2NaScBr6,3.1349
mp-11122,CsDyCdSe3,2.0718
mp-1112787,Cs2KCeBr6,0.47680000000000006
mp-1113297,Rb2EuCuCl6,0.0
mp-1113442,Cs2TlAgCl6,0.052699999999999005
mp-11225,TbAl,0.0
mp-1125186,U6Fe16Si7,0.0
mp-11253,NaSnAu,0.0
mp-11374,DyTl,0.0
mp-11532,Zn11Ni2,0.0
mp-1178366,Dy2SbO2,0.0
mp-1178448,Cr(NO3)5,0.0
mp-1179864,NaMnCu3Se4,0.0
mp-1183071,AcCdAu2,0.0
mp-11831,YbZnSn,0.0
mp-1183121,AcInAg2,0.0
mp-1183500,CaAcTl2,0.0
mp-1184277,Eu2ZnIr,0.0
mp-1184422,Gd2CuRu,0.0
mp-1184514,Gd2CdIn,0.0
mp-1184594,Hf2TcPd,0.0
mp-1184607,HfZrOs2,0.0
mp-1185315,Li3La3(MoO6)2,2.6755
mp-1185467,Lu2CoIr,0.0
mp-1185508,LuScCu2,0.0
mp-1185635,Mg149Tl,0.488799999999999
mp-1186102,NaAg2Sn,0.0
mp-1186210,Nb2TcOs,0.0
mp-1186482,Pm2NiPt,0.0
mp-1186692,PmSmIn2,0.0
mp-1187252,TaTc2Ge,0.0
mp-1187696,VCr3,0.0
mp-1187846,YHoIn2,0.0
mp-1187901,Yb2InPb,0.0
mp-1188514,Th2C3,0.0
mp-1188971,Ho2Sn5Rh3,0.0
mp-1189165,Ce3Cu3Sb4,0.0
mp-1189524,Tb6IrBr10,0.0
mp-1190561,KTb(WO4)2,3.383199999999999
mp-1191100,K2Zn5As4,0.345099999999999
mp-1191139,Sm3SbO7,2.6471999999999998
mp-1191152,PrEuCuS3,0.1665
mp-1191731,Er3B7W,0.0
mp-1191833,Gd2Fe12P7,0.0
mp-1192091,Cd3(BO3)2,1.622199999999999
mp-1192262,Ho3FeB7,0.0
mp-1192294,Tm3(GaNi3)2,0.0
mp-1192393,Sr14(SnAs4)3,0.9251
mp-1192469,Ir(SeBr3)3,1.6352000000000002
mp-1192799,V3(Ni10B3)2,0.0
mp-1193375,Yb2(Ni7B2)3,0.0
mp-1193469,CeCo9Si4,0.0
mp-1193782,Mn5VO8,0.5034000000000001
mp-1194705,Sr2P7Cl,1.948
mp-1194801,K6U5As2O23,1.8113000000000001
mp-1195679,Cs2Th(Si2O5)3,4.7913000000000014
mp-1195837,Ga40Mo8Au,0.0
mp-1196979,MoPbSeO6,2.3425000000000002
mp-1197115,Dy5(Ge5Ir2)2,0.0
mp-1197605,Y10Mn13C18,0.0
mp-1198669,La3Te4Br,0.053399999999999004
mp-1198707,Dy2B6Ru,0.0
mp-1200408,SrMo2Se2O11,2.7306
mp-1200647,Cs3ZnI5,3.1551
mp-1201199,Cs3As(PSe3)3,1.7314
mp-1201639,Pr(Ni2B)6,0.0
mp-1201764,TePb5O8,2.125299999999999
mp-1204974,Sm(Cd10Pd)2,0.0
mp-1205545,HoRe2SiC,0.0
mp-1205665,Ba2EuRuO6,0.0
mp-1206065,PrIn2Ir,0.0
mp-1206490,Nb2B2Mo,0.0
mp-1206844,RbPaO3,3.2138
mp-1207129,Nd2Ni2Sn,0.0
mp-1207345,Cs2PrF6,0.0
mp-1207504,Zn22Ni3,0.0
mp-1207514,YbPPd,0.0
mp-1207559,Yb3H2Pb,0.0
mp-1207758,Y5Ni2Sb,0.0
mp-1207781,Y3Ru,0.0
mp-1207804,Y3(SbPd2)4,0.0
mp-1207986,Tm5SbPd2,0.0
mp-1207987,Tm5BiPd2,0.0
mp-1208052,Tm6Co2Sn,0.0
mp-1208205,TiGeRh,0.0
mp-1208458,Tb4MgNi,0.012900000000000002
mp-1208541,Tl3Cr2(PS4)3,1.565
mp-1209709,Pr4CdIr,0.0
mp-1209949,Pr3Sc2(FeO4)3,2.1169000000000002
mp-1210019,Nd4MgCo,0.0
mp-1210032,Pr3Ga5O12,3.0124
mp-1210356,Na2PdF6,2.0995
mp-1210924,LiTb2RuO6,0.33080000000000004
mp-1211143,LiEuP,0.013000000000000001
mp-1211698,Pr8Ni18P11,0.0
mp-1211723,La(Cu2P)2,0.0
mp-1212073,HoZnGe,0.0
mp-1212094,Lu10Ni28As19,0.0
mp-1212887,Er2(Ga3Ru)3,0.0
mp-1212931,DyTl(WO4)2,2.861699999999999
mp-1212975,Dy4MgRu,0.0
mp-1213455,CsZr6CCl15,1.1421000000000001
mp-1213609,Dy8Ni18P11,0.0
mp-1213974,CaBiAu4,0.0
mp-1214501,Ba4Ho(CuO3)3,0.0
mp-1214577,Ba2Sm(CuO2)4,0.0
mp-1215479,Zr2V3Fe,0.0
mp-1217271,Th2PNO,1.3129
mp-1217332,Th2CN,0.0
mp-1217630,Tb3SmNi4,0.0
mp-1217713,Tb2MnSbO7,0.36060000000000003
mp-1217904,TaTiC2,0.0
mp-1218004,Ta2V3Ge,0.0
mp-1218094,Ta6V3Co3C2,0.0
mp-1218375,Sr2Zn5Si3,0.0
mp-1218620,SrCdPb,0.0
mp-1219209,Sm3Bi(Ru2O7)2,0.0
mp-1219532,Sr18Ca3Cr14O56,0.42610000000000003