material_id,pretty_formula,band_gap
mp-1019565,Ca3Ga2(GeO4)3,2.9786
mp-1024988,LiYb(CuP)2,0.0
mp-1025257,TmGa5Co,0.0
mp-1025271,AlPPt5,0.0
mp-1025274,Cs2NpO4,0.3679
mp-1025379,Tb2B4C,0.0
mp-1025550,Ti2GaN,0.0
mp-10453,Lu(SiRu)2,0.0
mp-10671,Sr3(AlGe)2,0.0
mp-1068002,Ca2MgPt2,0.0
mp-1070314,Eu(CdAs)2,0.0
mp-1070761,Ni(BW)2,0.0
mp-1071448,CeGaCo,0.0
mp-1072798,ErAlZn,0.0
mp-10749,SrCuSb,0.0
mp-1077071,GdCo5,0.0
mp-1078033,UGa5Rh,0.0
mp-1078058,Ti(CrS2)2,0.0
mp-1078408,LaNi2AsN,0.0
mp-1078589,EuAu,0.0
mp-1078857,DyAlCu,0.0
mp-1078880,UGaRu,0.0
mp-1079003,HoNiSn,0.0
mp-1079242,DyCdGa,0.0
mp-1079260,InSe,0.656099999999999
mp-1079881,CeSb2Pd,0.0
mp-1086673,DyTe3,0.0
mp-10911,Sc2Al3Ru,0.0
mp-1095488,UB4Os,0.0
mp-1095552,La(Ge2Rh3)2,0.0
mp-1101785,YCoGe,0.0
mp-1101942,LaSb2,0.0
mp-1101959,ZrGeRh,0.0
mp-1102129,Na2YbCdSb2,0.32569999999999905
mp-1102972,Er2Au,0.0
mp-1103139,Ca2Hg,0.0
mp-1103155,LaSiRh,0.0
mp-1103212,TaRh2,0.0
mp-1103252,ZnPd2,0.0
mp-1103697,Bi2Pd3Se2,0.0
mp-1103851,Ce3Pd4,0.0
mp-1104461,TbGa3Ru,0.0
mp-1105218,NaOsO3,0.0
mp-1105712,Er5Ge3C,0.0
mp-1105727,Tb6IrI10,0.0
mp-11080,YbMgAu,0.0
mp-1113068,Cs2ScInI6,2.129
mp-1114362,Rb2NaAsCl6,3.1733000000000002
mp-11176,Ca3(SiIr)4,0.0
mp-11275,Be2Re,0.0
mp-11278,Ta2Be,0.0
mp-11596,PrBPt3,0.0
mp-11666,Pr2(Zn2Ge)3,0.0
mp-11808,ScNi4Sn,0.0
mp-1183810,DyLuCu2,0.0
mp-1184134,Er2CdOs,0.0
mp-1184137,DyTmIn2,0.0
mp-1184336,FeIr3,0.0
mp-1184393,Gd2IrRu,0.0
mp-1184738,HoErIn2,0.0
mp-1185369,LiLuIn2,0.0
mp-1185555,Mg149Ru,0.065399999999999
mp-1186152,NaHg3,0.0
mp-1186434,Pm2CdGa,0.0
mp-1186586,PmHoRu2,0.0
mp-1186902,Re3Ir,0.0
mp-1187374,SrAcIn2,0.0
mp-1187944,Yb2ZnGe,0.0
mp-1188078,TbMg149,0.253099999999999
mp-1189112,Er6GaNi2,0.0
mp-1189249,HfSiOs,0.0
mp-1190368,DyReB4,0.0
mp-1190516,CsSm2Ag3Te5,1.1579
mp-1191116,Gd3(GaNi3)2,0.0
mp-1191743,Tb3B7W,0.0
mp-1191878,Eu2Mo2O7,0.0
mp-1192186,La5In11Ni6,0.0
mp-1192271,Cs2U(PdS2)3,0.0
mp-1193284,NdMoBrO4,2.247099999999999
mp-1194307,Sr(TmS2)2,1.820199999999999
mp-1194504,Sn3Ir2Se3,0.35800000000000004
mp-1194740,LiSc(GeO3)2,3.6031999999999993
mp-1195309,Ba2GaAsSe5,1.8619999999999992
mp-1195614,LaTl(PS3)2,2.5242
mp-1195666,La(Al10V)2,0.0
mp-11974,TmSnRh,0.0
mp-1197586,Ho13Zn58,0.047900000000000005
mp-1198232,Nd4Rh6Pb19,0.021199999999999
mp-1198610,Nb4FeTe4,0.0
mp-1198689,Yb5(Ni2Sn5)2,0.0
mp-1199017,TlSb3F18,2.2625
mp-1200567,Cs4Hf3Se14,1.7285
mp-1201016,Cs9Fe2Se7,0.6436000000000001
mp-1201140,Tb11Sn10,0.0
mp-1201298,Ho11(In3Ge2)2,0.0
mp-1203495,Tb2Re3Si5,0.0
mp-1203593,Cs4Zr6BBr17,1.0312
mp-1204208,ThCd11,0.0
mp-12047,K3Na(RuO4)2,0.5155000000000001
mp-1205210,NdRe3(H2O5)3,3.7822
mp-1205644,Er2CdPd2,0.0
mp-1205761,K2PdBr6,0.5109
mp-1205772,Cs2MnCl6,1.3591
mp-1205829,TbMgAg,0.0
mp-1206054,Er6FeSb2,0.0
mp-1206093,ThNiGe2,0.0
mp-1206242,YIn5Rh,0.0
mp-1206287,LuIn2,0.0
mp-1206472,K2TcBr6,1.0822
mp-1206742,ErHSe,1.5355
mp-1206992,LuBiPt,0.0
mp-1207057,TmBiPt,0.0
mp-12075,Tb(FeB)2,0.0
mp-1207590,YbCuSn,0.0
mp-1207891,Y3Al3Cr2O12,3.5074
mp-1207951,Tm5Re2C7,0.0
mp-1208016,Tm5Ni2Bi,0.0
mp-1208365,Th6MnBr15,0.0
mp-1208941,Sm4CdPt,0.0
mp-1209365,PrNiAs,0.0
mp-1209738,Pr2Cu(GeO4)2,0.0
mp-1209747,Pr2Ni12P5,0.0
mp-1209976,Nd4CdPd,0.09969999999999901
mp-1210114,NaEu(MoO4)2,0.0
mp-1210270,Na2YF6,0.0
mp-1210301,Pr2(Ga3Ru)3,0.0
mp-1210395,SmNb6Cl13O3,0.9550000000000001
mp-1210555,Mn3SnH,0.0
mp-1210935,Li3Dy3(TeO6)2,3.1904
mp-1211,ScCd,0.0
mp-1211784,KBa2I5,3.715799999999999
mp-1212227,Ho5(SiB4)2,0.0
mp-1213136,Dy2(Ga3Ir)3,0.0
mp-1213173,CsLa(WO4)2,3.6002
mp-1213190,Dy2Sc3Si4,0.0
mp-1213319,CsPr(WO4)2,3.5392
mp-1213416,Er6Ti4Al43,0.0
mp-1213469,CsZr6MnCl14,1.234
mp-1213636,Er8Ni18P11,0.0
mp-1213684,CsCr(SO4)2,2.7563
mp-1213727,Cs2(PSe2)3,1.3135
mp-1213735,Cs2La10Ru2I17,0.0035
mp-1214015,CeTl(PO3)4,0.3276
mp-1214853,AlInBr4,3.5593
mp-1216,YbO,3.5311
mp-1216066,Y2CoRu3,0.0
mp-1216631,TmUTe4,0.0
mp-1216800,U4Be51B,0.0
mp-1216881,U(Al3Fe)3,0.0
mp-1217124,Ti2Co3Sn2,0.0
mp-1217201,Ti4Mn5V3,0.0
mp-1217263,TePdSe,0.0
mp-1218118,SrSm3Mn4O12,0.0
mp-1219647,Rb2Zn3GeAs4,0.0
mp-1219887,Pr(AlFe)6,0.0
mp-1220313,Nd2SbO2,0.0
mp-1220316,NbW,0.0
mp-1220374,NbVCr,0.0
mp-1220713,Nb4P2S21,1.192399999999999
mp-1220890,Nd14Au51,0.0
mp-1222296,LiSmS2,1.8048000000000002
mp-1223149,La6Zn(SiS7)2,1.988
mp-1224517,Hf3TePb4O13,1.5070000000000001
mp-1225110,DyUTe6,0.0
mp-1225453,Er14Ag51,0.0
mp-1226848,Ce4Cu3(SO)4,0.0
mp-1227523,CeU2S5,0.0
mp-1227648,Ca(InCu)6,0.0
mp-1227661,Ca2Zn3Ga,0.0
mp-1227708,Ca16Sb11,0.0
mp-1228886,CsVFeF6,1.814
mp-1229254,B3Pb10Br3O13,2.4392
mp-12378,LaSnRh,0.0
mp-1238894,K(CrS2)2,0.0
mp-1239330,CaBi2O5,0.050100000000000006
mp-1260,SrPd5,0.0
mp-12671,Er2SO2,3.182299999999999
mp-1284552,Sr2TaMnO6,1.6184
mp-12919,LaPIr,0.0
mp-13227,YbMg2Cu9,0.0
mp-13549,CeZnAu,0.0
mp-1368,Zn8Cu5,0.0
mp-13792,KTaP4O13,3.6681
mp-13819,KAgF3,0.0
mp-13873,Ca(GaSe2)2,2.262699999999999
mp-13906,CuSnF6,0.0
mp-1391,Ag2F,0.0
mp-13918,Sr(GeAu)2,0.0
mp-142,Ga,0.0
mp-14423,Ca(GaS2)2,2.8466
mp-14865,Sr4Al6WO16,3.6877
mp-14964,Pr3TaO7,3.4185
mp-15050,Pr(PdO2)2,0.0
mp-15171,K2MgSiO4,4.002899999999999
mp-15431,Na2Ga2As3,1.0235
mp-15547,Na2ZnGaF7,3.9818
mp-15644,DyB2C,0.0
mp-16093,Lu3Co29(Si2B5)2,0.0
mp-17340,Nd4MnSe6O,0.005799999999999
mp-17363,BaHo2O4,3.587099999999999
mp-17413,Ti3Rh5,0.0
mp-17829,Sr3SmRhO6,2.0589
mp-1791,Al5Rh2,0.0
mp-17929,RbHo2Cu3S5,1.5755
mp-1814,BaAg5,0.0
mp-18330,Sr3ZnRhO6,0.0
mp-18474,Ag8GeSe6,0.4711
mp-18798,Sr2Mn2O5,0.43410000000000004
mp-18820,Sr3Fe2O7,0.0
mp-18993,LuVO4,2.9477
mp-19185,Mn3(BO3)2,2.5805
mp-19338,LiMoO2,2.3415
mp-19490,PrTl(MoO4)2,3.4725
mp-1971,HoCu,0.0
mp-19796,Ba2Nb5O9,0.0
mp-19801,EuRhO3,0.0
mp-19881,Dy3InC,0.0776
mp-19898,LaGeRu,0.0
mp-20272,GdPt3,0.0
mp-20385,Nd3InC,0.0
mp-20502,GdCuSb2,0.0
mp-20660,NpAl2,0.0
mp-20746,YbIn2Au,0.0
mp-20909,La3In,0.0
mp-21101,U(SiPt)2,0.0
mp-21138,MoPb2O5,2.9793000000000003
mp-21371,VCoSi,0.0
mp-21431,HoIn3,0.0
mp-21467,TiCo2Sn,0.0
mp-2209,CeGa2,0.0
mp-2217,LuCd,0.0
mp-22331,NdTiGe,0.0
mp-2235,YbRh2,0.0
mp-22806,Fe2P4PbO14,0.0
mp-23217,Bi2Rh,0.0
mp-2333,NdPd3,0.0
mp-2339,Ti3Pt,0.0
mp-23444,AsCl2F3,2.8871
mp-2358,SmAl2,0.0
mp-24409,PH4I,3.9619
mp-2484,SmSn3,0.0
mp-2637,YSe,0.0
mp-27210,RbTlF4,2.7161
mp-27394,CsSnCl3,3.137499999999999
mp-274,Nb5Sb4,0.0
mp-27578,As(S2F3)2,0.0
mp-2760,Nb6C5,0.0
mp-28070,Rb2TeI6,1.7489999999999992
mp-28201,Sr4(PPd)5,0.0
mp-2823,NdP,0.0
mp-2825,ErPd3,0.0
mp-28559,Na6Be8O11,3.6214
mp-28614,NaBPt3,0.0
mp-28684,Sb7Se8F35,1.9007
mp-28920,Tl5Se2Cl,0.5641
mp-29524,K3BiO3,2.9575
mp-29710,Hg4P2O7,1.9381
mp-2983,Ba(PN2)2,3.9118
mp-29981,Nb7(BC)4,0.0
mp-29998,La3SbI3,0.0
mp-30066,Sb7Pd20,0.0
mp-30212,La5Bi3Br,0.0
mp-30383,Hf2Au,0.0
mp-30612,Er7Rh3,0.0
mp-3074,KAgO,1.6375000000000002
mp-3079,CaTa4O11,3.5694
mp-30931,Na4SiSe4,2.1323
mp-30961,Ca7Tl3N2,0.0
mp-31038,CuSe2Cl,0.8538000000000001
mp-31104,KBi,0.4072
mp-31317,La3PbI3,0.0
mp-31464,Dy5Bi3,0.0
mp-3402,UTeN,0.0
mp-37167,U12Rh4Se31,0.0
mp-3893,Tb(CoB)2,0.0
mp-3972,Ce2SO2,0.0
mp-3991,UMoC2,0.0
mp-4037,TmNiC2,0.0
mp-4112,Tl2SO4,3.9287
mp-4181,Pr2CuO4,0.0
mp-433,DyAl,0.0
mp-4478,CaSiPt,0.0
mp-4591,SrNb2O6,2.9977
mp-4697,Zn(CrSe2)2,0.049100000000000005
mp-504640,U3Ni3Sb4,0.0
mp-504727,EuBrO,0.0
mp-504731,EuF2,0.0
mp-504771,LaCo8P5,0.0
mp-504790,LiYSn,0.0
mp-504812,Hf3P,0.0
mp-504922,UPbO4,1.5625
mp-505344,U3Co7B2,0.0
mp-505373,AsSeI,1.3285
mp-510062,CsSmCdSe3,2.0215
mp-510065,CsNdHgSe3,1.3538999999999999
mp-510565,Cs2AgF4,0.2033
mp-510582,NdNiSnH2,0.0
mp-510594,Ho5CoSb2,0.0
mp-5177,LuSnAu,0.0
mp-5309,KAuF4,2.4155
mp-531036,Ba8Nb7S24,0.0
mp-531064,KMo3Br7,2.371299999999999
mp-531600,Na3B5Se9,2.8213
mp-5322,Pr3IrO7,0.0
mp-541073,SmSI,2.6496999999999993
mp-541638,K2(ReS2)3,1.466
mp-542207,Ba3LiOs2O9,0.0
mp-5423,Pr(MnSi)2,0.0
mp-542391,Tm(SiNi5)2,0.0
mp-542514,Ho2Te4O11,3.3556
mp-5452,Ce(CuSi)2,0.0
mp-553921,Pm2O3,3.775299999999999
mp-554084,BaBi6(PO5)4,3.4328
mp-554244,Pr2SnS5,0.183199999999999
mp-555081,Er3CuGeS7,1.794299999999999
mp-555364,KVS2O9,1.815799999999999
mp-555667,RbFeF4,2.5700000000000003
mp-555699,BaLa(BiS3)2,0.681
mp-556079,Eu(IO3)3,0.0
mp-556318,Cr4Si2Cl2O7,2.3577
mp-556541,InSb2S4Cl,1.567699999999999
mp-557481,Sr4RhO6,0.0
mp-557690,Si2Mo4P6O25,1.8843
mp-557778,RbNbSiO5,3.2071
mp-557858,Cs3U2Ge2O11,0.0007000000000000001
mp-557892,BaLi(BS2)3,2.8361
mp-558123,V2Ge(O2F)2,1.8780000000000001
mp-558392,Bi2Ir2O7,0.0
mp-558442,Cr3B7IO13,1.964
mp-559093,Tl2BiP2S7,2.128399999999999
mp-559702,Pr2Ta2Cl2O7,3.0717
mp-560085,Bi24Cl10O31,2.1162
mp-560420,K3Bi2(PO4)3,3.7695
mp-560571,LaPS4,2.4278
mp-561392,TcSO6F,2.73
mp-562072,Cs3SbO3,3.1914
mp-562901,CsVP2O7,1.8684
mp-567621,Er3(CuGe)4,0.0
mp-568790,Ca14GaAs11,0.5969000000000001
mp-568830,TmInAu2,0.0
mp-568916,K6InTe4Cl,1.949
mp-569006,Sr(AsRh)2,0.0
mp-569178,HoTlSe2,1.416
mp-569724,ErAgSn,0.0
mp-570236,Pr(PRu)2,0.0
mp-570305,La7Sb11Br4,0.045099999999999
mp-570499,La5(BN3)2,0.0
mp-570548,NaPr4I7N2,2.7093
mp-570646,Nd4Te3N2,0.773799999999999
mp-570813,Li2UI6,0.0
mp-570879,CaCuSn,0.0
mp-570966,ZrP2NCl11,2.861399999999999
mp-571056,CsSn,1.1371
mp-571095,Na7Ga13,0.0
mp-573751,AlTeCl7,3.2818
mp-574426,CsCeCdSe3,0.191699999999999
mp-582618,Eu2C(NCl)2,1.044
mp-583168,NaSn2,0.0
mp-583593,Yb(PO3)3,0.0
mp-583684,EuCd11,0.0
mp-5934,Yb(CuSi)2,0.0
mp-5996,Na2Ti2Si2O9,3.270299999999999
mp-6016,NdAlGe2O7,3.6187
mp-607514,Pr(In2Au)2,0.0
mp-6122,Ba2NdSbO6,3.7031
mp-6135,Ba2PrIrO6,0.0
mp-614572,Ca3InP3,0.9917
mp-6194,K4UC3O11,2.1084
mp-619791,La5C2Cl9,1.639
mp-632656,HoH3,0.029500000000000002
mp-645945,Na12SnGe8,0.3291
mp-646008,Gd10S19,0.34229999999999905
mp-651961,Nb4Te17I4,0.9773000000000001
mp-652364,PNCl2,3.9764
mp-662530,KNiPS4,0.973599999999999
mp-672307,NdInPt,0.0
mp-6754,TmNi2B2C,0.0
mp-675750,Ca(Ga3Te5)2,1.0697
mp-680246,Cs4Zr3S14,1.8129
mp-680539,K11(In2Bi3)3,0.027500000000000004
mp-687081,YbCoO3,0.0
mp-693892,Sr2CrClO4,0.009699999999999001
mp-696941,K2H2RuO5,0.828399999999999
mp-697977,Sr2AlH7,3.1138
mp-698669,Nd2(MoO4)3,3.5548
mp-707337,K3H3Pd,1.7662
mp-7473,LiCu2Si,0.0
mp-755663,Ta2Pb2O7,2.8154
mp-7558,TaGe2,0.0
mp-755869,Dy2Mn2O7,1.116599999999999
mp-756320,Li3Fe4SbO8,1.3748
mp-760323,Ce5O9,0.0
mp-7652,Na5TlO4,1.1596
mp-768949,KEuO2,0.0
mp-770816,Dy2TiO5,3.3202
mp-774535,TiNb3(PO4)6,0.0
mp-775539,K11Mn4O16,0.0
mp-8073,AsPd2,0.0
mp-8132,Li(TiSe2)3,0.0
mp-861502,AcFeO3,1.1671
mp-861636,Er2ZnOs,0.0
mp-861930,LiPdAu2,0.0
mp-862300,Sc2GaOs,0.0
mp-862368,Sc2NiPt,0.0
mp-862555,LiY2Al,0.0
mp-862716,LiAg3,0.0
mp-862958,PmRh2Pb,0.0
mp-862959,PmRh3,0.0
mp-862977,Pm2AgIr,0.0
mp-862986,PmBr3,2.888
mp-863374,BiTeO4,2.2396
mp-863718,PmNi3,0.0
mp-864655,PaCo3,0.0
mp-864760,HoCdPd2,0.0
mp-864800,Yb2PdAu,0.0
mp-865001,HfScOs2,0.0
mp-865236,Tm2ZnOs,0.0
mp-865376,YMg3,0.0
mp-865429,YbYRh2,0.0
mp-865443,LuRh2Pb,0.0
mp-865461,LuZrCo2,0.0
mp-865471,VGaTc2,0.0
mp-865546,Yb2AgBi,0.0
mp-865602,Y2MgAl,0.0
mp-865878,Ti2TcNi,0.0
mp-865892,Li2CaPb,0.0
mp-865893,LiZr2Tc,0.0
mp-865988,LuCdHg2,0.0
mp-865994,YbScRh2,0.0
mp-866002,YbTl2Cd,0.0
mp-866009,DyZrRu2,0.0
mp-866060,CaPrAg2,0.0
mp-866134,VFe3,0.0
mp-866193,Li2LaIn,0.0
mp-867155,Sr5Cd2Sb5F,0.016199999999999
mp-867164,Pm3Sn,0.0
mp-867198,LiGaPd2,0.0
mp-867201,CaInHg2,0.0
mp-867215,Sc3OsC4,0.0
mp-867276,DyCdPd2,0.0
mp-867344,Er2NiOs,0.0
mp-867593,Ag2H4(SO4)3,2.8968
mp-867739,Nb3GeS6,0.0
mp-867804,ScPaRu2,0.0
mp-867880,La2TlCd,0.0
mp-867922,ScAlRh2,0.0
mp-888,CaAs,0.0
mp-90,Cr,0.0
mp-903,ZrCr2,0.0
mp-972228,Zr3As2,0.0
mp-972408,UBiTe,0.0
mp-973283,HoLuAg2,0.0
mp-974437,Re2C,0.0
mp-976584,Hf9Mo4As,0.0
mp-977363,Ta2TcMo,0.0
mp-977424,Yb2ZnPb,0.0
mp-978529,SmTmHg2,0.0
mp-978557,SmDyHg2,0.0
mp-978568,Si3MoPt2,0.0
mp-978953,SrAcTl2,0.0
mp-979433,YLuCu2,0.0
mp-979966,Yb2Cr2C3,0.0
mp-980669,TmLuCo2,0.0
mp-995201,Ti5Si3C,0.0
mvc-10314,CaHo(FeO3)2,0.0
mp-1006146,Eu(MgBi)2,0.0
mp-1006352,Er2Co3Ge5,0.0
mp-10116,UB2Ir3,0.0
mp-1017983,TiMo3,0.0
mp-1018062,FeSnRh2,0.0
mp-1018738,LaAl2BRu2,0.0
mp-1018781,Li3SmSb2,0.0
mp-10244,Zr3(CuSi)4,0.0
mp-10247,U2CrN3,0.0
mp-1025194,Pr2Fe2Si2C,0.0
mp-1025365,Sc(VGa2)2,0.0
mp-1025402,SrCu,0.0
mp-1025443,ThCd3,0.0
mp-1025532,MnCu2SnTe4,0.0
mp-1068447,BaGe3Pd,0.0
mp-1068489,Pr2Ni2Sn,0.0
mp-1069383,Eu(ZnP)2,0.0
mp-1069825,PrAl3Cu,0.0
mp-1070238,ThSi3Rh,0.0
mp-1070369,NdSi3Ir,0.0
mp-1076933,GdAl3Cu,0.0
mp-1077379,NdCdNi4,0.0
mp-1077423,TmAlZn,0.0
mp-1077741,YbCu4Ag,0.0
mp-1078258,Cs2AgBiCl6,2.1138
mp-1078772,TmAgGe,0.0
mp-1078916,Tm2InCu2,0.0
mp-1079141,Pr(GeIr)2,0.0
mp-1079221,Th(SiPt)2,0.0
mp-1079313,V3GeC,0.0
mp-1079355,Nd(AsRh)2,0.0
mp-1079458,Cs2NaCeCl6,0.422299999999999
mp-1079844,ThGaIr,0.0
mp-1080061,Dy(SiPt)2,0.0
mp-1080524,LaAl5Ni2,0.0
mp-10905,Al3Pt2,0.0
mp-1095470,Eu2ZnGe3,0.0
mp-10960,Tb2Ti2S2O5,0.7013
mp-1097867,LiMn2O4,0.38759999999999906
mp-1100961,U5P3Se2,0.0
mp-1101056,GdMgIn,0.0
mp-1101266,Tm2TeO2,0.44200000000000006
mp-1101774,YSnIr,0.0
mp-1102145,EuMgSn,0.0
mp-1102172,Ce2In8Pd,0.0
mp-1103049,TmGaPt,0.0
mp-1103956,K(TeMo)3,0.215399999999999
mp-1103990,EuC6,0.0
mp-1105051,Dy(MnSn)6,0.0
mp-1105133,Ho3Si2(SnRh3)3,0.0
mp-1105649,YbB2Os,0.0
mp-1105686,HoSiPd2,0.0
mp-1105818,Nb5Ge3B,0.0
mp-1106138,CeAlPd2,0.0
mp-1106276,Tb3Ir,0.0
mp-1106374,LaLuS3,2.232199999999999
mp-1112938,Cs2ScAgI6,2.209899999999999
mp-1114171,K2NaRuF6,0.0
mp-1120781,Ni3Se4,0.0
mp-11247,Li3Au,0.0
mp-11248,LiAu3,0.0
mp-11269,BaSn3Pd,0.0
mp-11293,ZrCdCu2,0.0
mp-11295,DyCd3,0.0
mp-11361,MgCuSn,0.0
mp-11427,GdPd,0.0
mp-11442,HoGaNi,0.0
mp-11514,NbPt2,0.0
mp-11576,YbTl,0.0
mp-117,Sn,0.0
mp-11818,BaZnGe,0.0
mp-1183243,AcSnPd2,0.0
mp-1183483,CaAcRh2,0.0
mp-1183641,Cd3Pt,0.0
mp-1183780,DyHoTl2,0.0
mp-1184092,Er2CuPd,0.0
mp-1184233,ErMgAg2,0.0
mp-1185365,LiMg2Au,0.0
mp-1185442,Lu2CuPd,0.0
mp-1185462,LiThRh2,0.0
mp-1185583,Mg149Re,0.11079999999999901
mp-1185957,MgScIr2,0.0
mp-1186379,NdYIn2,0.0
mp-1186580,PmHg3,0.0
mp-1186649,PmSnPt2,0.0
mp-1187436,Ti2CuRe,0.0
mp-1187455,ThInCu2,0.0
mp-1187611,TmLuAg2,0.0
mp-1187879,Yb2AgAu,0.0
mp-1188472,Tb3Ge3Ir2,0.0
mp-1188841,BaNb2V2O11,2.1339
mp-1189617,Gd3Cu3Sb4,0.3542
mp-1189957,Ta3RhS6,0.0
mp-1190138,Na2In2SiS6,2.5139
mp-1190604,Nb3Al2C,0.0
mp-1190620,Nd3(GaNi3)2,0.0
mp-1190689,GdSi3Ni8,0.0
mp-1190736,Ca8Al3,0.0
mp-1191078,Y2Ni12P7,0.0
mp-1191181,Ho2Fe12P7,0.0
mp-1191328,Ce2Co12P7,0.0
mp-1191571,DyH3,0.010899999999999
mp-1192065,SmH3,0.12889999999999902
mp-1192597,Y10Cd3Pd,0.0
mp-1192803,Lu2PbS4,2.308
mp-1193223,Ba(TbS2)2,1.7562000000000002
mp-1193915,Mn3Sb2(IO)4,1.737099999999999
mp-1193935,Eu2BiS4,0.0
mp-1194122,Sm(Sn2Rh)2,0.0
mp-1194343,TmMoBrO4,2.1146
mp-11944,LiYbGe2,0.0
mp-1194591,NdTlP2S7,2.4414
mp-1194660,K11Cd2Sb5,0.5584
mp-1195538,K2ScP2Se7,1.7243
mp-1195562,RbHS2O7,5.258599999999999
mp-1195796,TeHO3,2.284
mp-1195915,Eu2TiO5,0.0
mp-1198841,NbBi4BrO8,1.4701
mp-1198844,TbNiSn2,0.0
mp-1199071,Pr(Cd10Pd)2,0.0
mp-1199244,CsCuS6,1.091199999999999
mp-1200288,Pr(SiP3)2,0.8609999999999991
mp-12008,ErCdCu4,0.0
mp-1200894,Zr3As,0.0
mp-1201169,P4Se3Br2,2.32
mp-1201436,Ho3Si11Pt23,0.0
mp-1202217,RbLiSO4,5.140099999999999
mp-1202267,Lu5Pt4,0.0
mp-1202595,Ca5V3ClO12,3.8017000000000003
mp-1204938,EuCrHO5,0.0
mp-1205113,VN3O10,2.9996
mp-1205421,ZrSCl6O,3.3121
mp-1205519,HoSiOs2C,0.0
mp-1206123,AlFe3H,0.0
mp-1206169,SrCuSi,0.0
mp-1206427,KRb2CuF6,0.9296000000000001
mp-1207101,KMnSe2,0.0
mp-1207425,Zr6Be15Ni8,0.0
mp-1207557,YbMnB4,0.0
mp-1207794,Y4CdNi,0.0
mp-1208098,Tm(IO3)3,3.5245
mp-1208303,TbCdPd,0.0
mp-1208317,TbGa2Ag,0.0
mp-1208323,Ti5CuBi3,0.0
mp-1208398,Tl2(SeO4)3,1.4918
mp-1208621,SrGa4Au3,0.0
mp-1208630,SrC6,0.0
mp-1208760,Sr2ScNbO6,2.94
mp-1209077,Sm6Ni20As13,0.0
mp-1209606,RbFeBr4,1.0309
mp-1209974,Pr12(MnC3)5,0.0
mp-1211018,Lu12Fe2Pb3,0.0
mp-1211048,Li2Pr5Sn7,0.0
mp-1211293,La(YS2)3,1.0838
mp-1211863,K2NdBr5,3.9786
mp-1211987,La4GeO8,3.8376
mp-1211993,K2FeI4,0.0
mp-1212656,Hf3(Mn2Si3)2,0.0
mp-1212905,Er2B6Rh,0.0
mp-1213005,ErSiNi,0.0
mp-1213095,Eu3TaO7,0.0
mp-1213585,Eu2WO6,0.0
mp-1213975,CaB4,0.0
mp-1214121,Ca2NbFeO6,2.099499999999999
mp-1214125,Ca2ScNbO6,3.1431
mp-1214866,Al7Cu2Ru,0.0
mp-1215669,Zr3TePb4O13,1.6107
mp-1217181,TlMo2P3O13,2.0529
mp-1217219,Ti2Sb2Pb4O13,1.2724
mp-1217848,Tb(CuS)3,1.405599999999999
mp-1217981,SrNdNiO4,0.0
mp-1218236,SrIn3Au,0.0
mp-1218538,Sr4Zn(IrO4)3,0.0
mp-1218875,Sr2(AlAg)5,0.0
mp-1219144,Sm2AsSe,0.0
mp-1219429,Sc2CO,0.0
mp-1220196,Nd4Cu3Ni,0.0
mp-1220866,NaSn2Pd3,0.0
mp-1223083,La3Nd3Al22,0.0
mp-1224550,In10CuAgS16,0.0
mp-1224908,FeNiSb6,0.15230000000000002
mp-1225120,Er(CuS)3,1.4862
mp-1225509,Dy2CrSbO7,1.894299999999999
mp-1225578,DyErTe2,0.0
mp-1225966,Eu2(CuNi)5,0.0
mp-1226769,CeYIn6,0.0
mp-1226785,Ce2NiRu3,0.0
mp-1228689,Ba(TeMo)6,0.0
mp-1228715,Ba5Nb3O3F20,0.7110000000000001
mp-1228775,Ba3WO6,3.1512000000000002
mp-1232302,RbCuCl3,0.047900000000000005
mp-12545,Er3Pd2,0.0
mp-12595,MoRh,0.0
mp-12691,Lu2InPd2,0.0
mp-12701,NdSn2,0.0
mp-12940,HoIn5Rh,0.0
mp-1328,SrRh2,0.0
mp-14712,Li7PN4,3.4744
mp-1495,ErIr2,0.0
mp-15297,Hf6NiSb2,0.0
mp-15551,Sr2LiSi3,0.0
mp-15839,NdSbPt,0.0
mp-16163,Pr3ReO8,1.8658000000000001
mp-16254,BaCuP,0.0
mp-16552,MnAg(PO3)3,3.0005
mp-16745,ErAgPb,0.0
mp-16927,NaTbGeO4,3.6098999999999988
mp-17048,Rb2WS4,2.23
mp-1722,Zn13Fe,0.0
mp-17306,KMo3(PO7)2,2.1751
mp-17485,Ho2Si3Rh,0.0
mp-17720,Sr5Sn3,0.0
mp-17871,Ca(Al4Co)2,0.0
mp-1804,Fe3N,0.0
mp-18702,AgPO3,2.0266
mp-18751,Mn2ZnO4,0.9470000000000001
mp-1883,SnTe,0.6623999999999991
mp-18863,PrCrO4,0.336199999999999
mp-1901,NaO2,0.0
mp-1932,Nb3Os,0.0
mp-19768,NiAsRh,0.0
mp-19820,TmPb3,0.0
mp-19830,ErN,0.271599999999999
mp-19835,Nb2InC,0.0
mp-19844,Na(FeSb3)4,0.0
mp-19927,CeZnGe,0.0
mp-20074,SrIn2,0.0
mp-20103,TmInPt,0.0
mp-20214,UGa3,0.0
mp-20217,EuPS3,0.7967000000000001
mp-20263,CaIn,0.0
mp-20325,Ti3InC,0.0
mp-20363,LiGa2Pt,0.0
mp-20393,Sr2InPt2,0.0
mp-20425,NpSi3,0.0
mp-20514,GdSnAu,0.0
mp-20567,LiGa2Ru,0.0
mp-20595,Eu(AlSi)2,0.0
mp-20676,ErNiGe,0.0
mp-20683,Cu3Se2,0.0
mp-20918,ErTiSi,0.0
mp-21202,Sm3In,0.0
mp-21207,LaInNi2,0.0
mp-21315,PuNi5,0.0
mp-21348,Ba2EuTaO6,0.0
mp-21367,LaIn2Pd,0.0
mp-21413,RbMnP,0.0
mp-21612,Mg6Cu16Si7,0.0
mp-21810,Tm5(Ge5Rh2)2,0.0
mp-22329,NaNd2OsO6,0.5585
mp-22401,Nd2Re3Si5,0.0
mp-22529,SrInAu,0.0
mp-2260,FePt,0.0
mp-22623,Ce3(CuGe)4,0.0
mp-22714,LuCoC,0.0
mp-22718,TbInAu,0.0
mp-22809,KCeSiS4,0.12399999999999901
mp-22932,KInBr4,2.8289
mp-22990,CsICl2,2.3019
mp-23051,NbSeI,0.0
mp-23279,KBi2,0.0
mp-23311,EuBr2,1.483899999999999
mp-23357,Sr2Bi2O5,2.2583
mp-24082,Ta2H,0.0
mp-255,NaHg,0.0
mp-26,La,0.0
mp-27150,Mg2V2O7,2.7247
mp-27334,Tl3FeCl5,0.0
mp-2754,Hf2Fe,0.0
mp-2772,ZrAl2,0.0
mp-2773,BeCo,0.0
mp-28024,YSiPd2,0.0
mp-28185,TaClF8,3.484
mp-28204,CsH7O4,4.588999999999999
mp-2826,Lu2S3,2.6637
mp-28703,RbAg5S3,0.7669
mp-28787,Zn2BIr2,0.0
mp-29286,TlSbF4,3.8998
mp-29680,Ta2Bi4O11,2.7999
mp-29819,Ba2Si3Ni,0.0
mp-29905,Mn9(NbGe4)2,0.0
mp-29986,La2Al2I,0.0
mp-30210,La5Sn3Cl,0.0
mp-30355,SrAg,0.0
mp-30457,LuNiBi,0.1726
mp-30587,MgInCu4,0.0
mp-30713,Ho2Zn17,0.0
mp-30795,Na2Tl,0.0
mp-30846,Sn3Pt2,0.0
mp-30852,TiPt8,0.0
mp-31465,Ho5Bi3,0.0
mp-31466,Er5Bi3,0.0
mp-32606,Ba3P2,0.221699999999999
mp-3344,CeAlRh,0.0
mp-3546,Tb(Al2Fe)4,0.0
mp-3587,Sc(SiNi)2,0.0
mp-3623,MnAlCo2,0.0
mp-37949,NdSiAg,0.0
mp-3901,NdNbO4,3.7723
mp-3942,TmSnPd2,0.0
mp-3949,K7LiSi8,1.6929999999999992
mp-4052,Rb2Mn3Se4,0.0
mp-4922,MnAlNi2,0.0
mp-504564,Si(PbS2)2,2.1705
mp-5057,Nd(SiAu)2,0.0
mp-5082,Nd2Si3Rh,0.0
mp-510052,Hf5(In2Rh)2,0.0
mp-510133,Sc(Fe2P)2,0.0
mp-510271,CoH12(BrO3)2,2.904
mp-510691,Hf5Sn4,0.0
mp-510763,VAsO5,2.14
mp-5137,Zr2SbP,0.0
mp-54,Co,0.0
mp-540940,Ti(TlSe)4,2.134
mp-541520,KV3(SeO6)2,2.3293
mp-541689,Na7In3Se8,1.1676
mp-541709,Nb3Tl2Br9,1.0294
mp-541853,U2(Co7B2)3,0.0
mp-541956,CsTiAsO5,3.0085
mp-542479,DyMnO3,1.1957
mp-542593,NdGe2Ir,0.0
mp-542634,Ta2Te3,0.0
mp-552051,Ca2CoTeO6,1.6341
mp-554191,Na2UO4,1.8756
mp-554351,SrHg2(ClO)2,1.6793
mp-554914,Hg3PO4,2.2241
mp-555531,K5Tl3O,0.049100000000000005
mp-555873,Rb2MoAs2O9,2.7991
mp-555876,BaMo2(PO4)4,2.3292
mp-556171,CdP2Xe5F22,2.4130000000000003
mp-556353,Rb2NaNiF6,0.0
mp-556521,KNa7Pb2O7,0.8484
mp-556808,RbNb(BO3)2,3.3773
mp-557315,Na2V3O7,2.4932
mp-557372,Rb2Ge4O9,2.862
mp-557855,CaGaBO4,3.9709000000000003
mp-558345,ZnFe2(SeO3)4,0.0
mp-558800,CaMn4(SiO3)5,2.915899999999999
mp-558846,Cs2As4Pd3O14,0.327999999999999
mp-558965,Gd4Si2Se3O7,1.0029
mp-558977,LaErS3,0.8792999999999991