material_id,pretty_formula,band_gap
mp-667360,CsSbOF4,3.6042
mp-669560,K4Eu(PS4)2,0.721499999999999
mp-669722,Nd(Sn2Rh)2,0.0
mp-6698,Th2Cu(PO4)3,2.9465000000000003
mp-67,Sc,0.0
mp-680437,K3GdSi2O7,3.1454
mp-685055,CrTe2,0.0
mp-7187,TiAlNi2,0.0
mp-721583,CdH2SeO5,2.5187
mp-7363,Sr(ZnGe)2,0.0
mp-757407,Sr2Tl2O5,0.9457999999999991
mp-757917,Be(GaO2)2,2.8901000000000003
mp-758452,V2CoO4,0.0
mp-760414,Ti3PdO,0.0
mp-760421,Zr6BI12,0.0
mp-765403,Co(BiO3)2,0.0
mp-768451,Cu2(SO4)3,0.029499999999999003
mp-774752,Li2MgTi3O8,3.2915
mp-776167,CeAlO3,0.0
mp-778433,Li3Cr2(PS4)3,1.2946
mp-7858,MgUO4,1.6662
mp-8308,Ca3Ni7B2,0.0
mp-8547,PdPtF6,0.0
mp-861487,PrHg3,0.0
mp-861866,KNdGeS4,2.3623
mp-861931,LiPt3,0.0
mp-862693,BaNaH3Pd,1.5388000000000002
mp-862767,TbMgCd2,0.0
mp-862843,PaZnRu2,0.0
mp-862849,Ac2NiIr,0.0
mp-863697,LiPm2Si,0.0
mp-863713,Pm2NiIr,0.0
mp-864657,HoI3,2.2173
mp-864997,LiSiPd2,0.0
mp-865172,YbTaRu2,0.0
mp-865223,LuMgCd2,0.0
mp-865234,TaZnRu2,0.0
mp-865238,Lu2MgAl,0.0
mp-865240,Lu2MgIn,0.0
mp-865324,LuCl3,3.8527
mp-865375,Tm2OsRh,0.0
mp-865398,Ac2ZnIr,0.0
mp-865409,UTc2Sn,0.0
mp-865490,V2CrFe,0.0
mp-865501,V2TcRu,0.0
mp-865519,YTaRu2,0.0
mp-865579,Li2ErIn,0.0
mp-865786,CrPd3,0.0
mp-865789,YbInAg2,0.0
mp-865871,Li2ZnAu,0.0
mp-866096,HfZnCo2,0.0
mp-867108,LiDyTl2,0.0
mp-867189,Pm3Pb,0.0
mp-867275,BeVOs2,0.0
mp-867279,DyPaRu2,0.0
mp-867422,AcPbAu2,0.0
mp-867761,Sc2CoRu,0.0
mp-867833,LaMgHg2,0.0
mp-867834,LiHfPt2,0.0
mp-867979,LaInHg2,0.0
mp-881,NpSn3,0.0
mp-9039,Sr4IrO6,0.0
mp-929,ZrCo2,0.0
mp-971813,TmB4Ru,0.0
mp-972209,Ta2TcW,0.0
mp-972879,Sc2RuAu,0.0
mp-972891,ScBe13,0.0
mp-973553,Gd(Al2Cu)4,0.0
mp-973585,LuIO,3.3021000000000003
mp-973966,LiIn(IO3)4,3.1129
mp-977387,TbAgHg2,0.0
mp-978857,SrHgO2,2.2989
mp-980937,Tb2Co12P7,0.0
mp-982883,Na6Cd16Au7,0.0
mp-983123,HfMgAu2,0.0
mp-9930,UPSe,0.0
mp-9956,AlCr2C,0.0
mp-998711,TlGeF3,3.4249
mp-999122,TbFeC2,0.0
mp-999126,NaTbS2,2.3185000000000002
mp-999319,NdTlTe2,0.855599999999999
mvc-6158,Ca3Mn3(AsO4)4,2.0393
mp-1018125,Ti2Re,0.0
mp-1018674,DyAlZn,0.0
mp-1019279,SrZnSn,0.0
mp-10240,ScNiP,0.0
mp-1025288,TbGa5Co,0.0
mp-1025354,Er2Fe2Si2C,0.0
mp-1029852,RbMoN2,0.050699999999999
mp-10311,ZrVGe,0.0
mp-10558,La3(NbN3)2,0.0
mp-1065288,GdInAu2,0.0
mp-1070394,CeSi3Rh,0.0
mp-10759,GeSe,0.44009999999999905
mp-1078445,Nd2BiN,0.0
mp-1078462,BaMg4Ge3,0.0
mp-10785,RbLuSe2,2.1094
mp-1078854,ErNiGe3,0.0
mp-1079076,Hf2PbC,0.0
mp-1079148,LuSnRh,0.0
mp-1079218,Ho3Sn7,0.0
mp-1079296,HfAu3,0.0
mp-1079498,Pr2InCu2,0.0
mp-1080552,SrHg3,0.0
mp-1085,UOs2,0.0
mp-1086,TaC,0.0
mp-1094100,Nb4CoS8,0.0
mp-1095312,U2Te2PO,0.0
mp-1095575,Y3(CuSn)4,0.0
mp-1096802,Ag2GeSe3,0.0543
mp-1102201,PuB4Os,0.0
mp-1102458,YGaRh,0.0
mp-1102691,LuAlPt,0.0
mp-1102854,YNiP,0.0
mp-1103315,Be2Ru,0.0
mp-1104136,Er3Pt4,0.0
mp-1104161,Dy3Zn11,0.0
mp-1104233,Ce2Te5,0.0
mp-1104242,K(MoSe)3,0.480199999999999
mp-1105101,Ba9In4,0.0
mp-1106269,Dy2Sn5Rh3,0.0
mp-1112490,Cs2TlInCl6,2.7088
mp-1112660,Cs2NaCeBr6,0.3452
mp-1113554,Cs2InAgBr6,0.2597
mp-11155,NdMgGa,0.0
mp-11214,CaAgSb,0.0
mp-11284,CaGa2,0.0
mp-11290,CaSn3,0.0
mp-11351,CeAlNi,0.0
mp-11572,TaTc,0.0
mp-1180295,Na3Si17,0.0
mp-1180946,K2HgCl4,2.3538
mp-1183552,CaPmAg2,0.0
mp-1183814,CePbAu2,0.0
mp-1184161,ErCdHg2,0.0
mp-1184449,CaMg149,0.49900000000000005
mp-1184499,GdErIr2,0.0
mp-1184678,Hf2FeRh,0.0
mp-1184816,HoMgCd2,0.0
mp-1184821,HoRh2Pb,0.0
mp-1185238,LiTiPd2,0.0
mp-1185374,LiMgPb2,0.0
mp-1185556,Mg149H,0.04259999999999901
mp-1185599,Mg149Ni,0.015099999999999001
mp-1186060,MnOs3,0.0
mp-1187026,SmYHg2,0.0
mp-1187179,Sm2MgIn,0.0
mp-1187208,Ta2ReW,0.0
mp-1187571,YbHoPt2,0.0
mp-1187911,ZnGaCo2,0.0
mp-1187917,Yb2TlHg,0.0
mp-1188014,ZrScRu2,0.0
mp-1188085,DySiPt2,0.0
mp-1188413,Zr3Rh,0.0
mp-1188441,TiCu4,0.0
mp-1188531,Zr5CuPb3,0.0
mp-1188547,Tb3Cu3Sb4,0.45309999999999906
mp-1188757,Y3Os,0.0
mp-1188983,TbZn3,0.0
mp-1189225,Nb3RhSe6,0.0
mp-1189342,Zr5TePb3,0.0
mp-1190079,Tb2Si4Mo3,0.0
mp-1190188,Ba2Ge5Ir4,0.207099999999999
mp-1190711,Sr2(ZnAu2)3,0.0
mp-1190827,Ba2CoGe2O7,2.1416
mp-1191085,LiY(WO4)2,3.8032
mp-1191394,Li8Nd7Ge10,0.0
mp-11914,NaLa2IrO6,0.0
mp-1191823,CeSi2Ni9,0.0
mp-1191827,Tb3(AlNi3)2,0.0
mp-1191877,LiGdSn,0.0
mp-1192260,Rb2U(PdS2)3,0.0
mp-1192634,Ba(LuTe2)2,0.786099999999999
mp-1192664,Ce6Mg23As,0.0
mp-1192855,U8CoSe17,0.0
mp-1193282,Cs3FeS3,0.0
mp-1193300,ReS2ClO9,2.4051
mp-1193542,LiMnVF6,2.4013
mp-1193801,Ca2AlPbF9,5.816899999999999
mp-1193877,Bi3(TeCl5)2,1.2580999999999989
mp-1193939,Te2P2O9,3.479599999999999
mp-1194423,Zr6Al16Co7,0.0
mp-1194691,Sm3(GeRu)2,0.0
mp-1194963,Tl2P4Pd3O14,1.1808
mp-1195256,Zr3Sb7Pd,0.0
mp-1195540,Dy3(Al3Ru)4,0.0
mp-1196224,Ba6Sn6Se13,1.1071
mp-1196530,Lu5(Ge5Ir2)2,0.0
mp-1196845,Sm6TlFe13,0.0
mp-1197180,Cs8Zr(MoO4)6,3.8577999999999992
mp-1197516,La2HfSe5,0.8023999999999991
mp-1198767,SrV2TeO8,2.6844
mp-1200201,Hg6P4PbCl6,2.1079
mp-1200219,V4Cr2O13,2.3541
mp-1200455,Dy6Al43W4,0.0
mp-1200885,Y4C7,0.6143999999999991
mp-1202504,Rb7NaSi8,1.6841
mp-1203040,B2Pb4O7,2.5258000000000003
mp-1203227,Gd4C2Cl3,0.0
mp-1203324,Zr3Ge,0.0
mp-1203408,KYb2Cd2Sb3,0.049600000000000005
mp-1203903,Cs4Sr3(PO3)12,0.0
mp-1204202,Ho6Al43W4,0.0
mp-1204382,Tm10S19,0.5289
mp-1204933,K2LaTa5O15,2.5879000000000003
mp-1205245,B11H2CCl11,3.5631
mp-1205724,Pr2CdRh2,0.0
mp-1205749,NdSnIr,0.0
mp-1205754,Na2CeF6,2.228399999999999
mp-1205981,TbBiRh,0.0
mp-1206369,ScPd2Pb,0.0
mp-1206720,PrBiPd,0.0
mp-1206811,NdIn2Rh,0.0
mp-1206859,ErBrO,0.043800000000000006
mp-1206893,Sc6Te2Ir,0.0
mp-1206989,TbBiPt,0.0
mp-1207015,Cs(PRu)2,0.0
mp-1207080,TbHSe,1.553599999999999
mp-1207207,Rb(AsIr)2,0.0
mp-1207365,Cs(PIr)2,0.0
mp-1207707,Y2(Al3Ir)3,0.0
mp-1207726,Y2Si3Pd,0.0
mp-1207903,V3Pb5O12F,2.9987
mp-1208001,Tm3(SbPd2)4,0.0
mp-1208066,TmCu5Sn,0.0
mp-1208086,Tm3(P3Pd10)2,0.0
mp-1208232,ThSiOs2C,0.0
mp-1208354,TbGaCo4,0.0
mp-1208421,Tb5(ReO6)2,0.0
mp-1208484,Tb4MgRu,0.0
mp-1208535,Tb2(Ga3Ir)3,0.0
mp-1208900,Sm(Al5Ru)2,0.0
mp-1208995,ScTl3F6,3.6656
mp-1209134,Sm12Co6Sn,0.0
mp-1209333,Pr3Bi4Pt3,0.0
mp-1209346,PrSiIr,0.0
mp-1209403,RbFeI4,0.577599999999999
mp-1210780,Li2Pr2Si3,0.0
mp-1211386,Li3Pr3(TeO6)2,3.1285
mp-1211963,La8Sb14Pt17,0.0
mp-1212034,K2GdCl5,2.5717
mp-1212057,HoGa3Os,0.0
mp-1212138,K2CeCl5,0.32220000000000004
mp-1212301,Ho3SbO7,2.7548
mp-1212423,Ho12In3Fe2,0.0
mp-1212594,In3Te3Br,1.3042
mp-1212595,Ho2Hf2(MoO4)7,3.1837
mp-1212831,DySiRh,0.0
mp-1212861,Er2(Al3Rh)3,0.0
mp-1212978,K7Nb14(P3O20)3,0.0927
mp-1214012,Cs(Nb2Cl5)3,0.9408999999999991
mp-1214632,Ba3SbI3,1.4021
mp-1215594,YbGd3F12,0.0
mp-1215818,ZnNiTe3O8,3.2353
mp-1216186,Y2As7Rh12,0.0
mp-1216740,Tm(CuS)3,1.6021
mp-1216777,U2As3Se,0.0
mp-1217580,Th14Au51,0.0
mp-1217670,Tb2ZnAg,0.0
mp-1217712,Tb2NiSb4,0.0
mp-1217839,Tb(AlCu)6,0.0
mp-1218828,Sr2FeO3F,0.980399999999999
mp-1219055,SmGdS3,0.679
mp-1219174,Sm(ZnGa)2,0.0
mp-1219787,Rb2Bi4Se7,0.7284
mp-1219914,Pr6Cd(GeS7)2,2.0194
mp-1220173,NdCuGe,0.0
mp-1221460,Na2(NbS2)3,0.0
mp-1221813,MnCr4CdS8,0.703199999999999
mp-1222329,LuAlCu,0.0
mp-1222651,Li2MgGe,0.10450000000000001
mp-1222829,LaSeS,0.0
mp-1222968,LaSm3Cr4O12,0.0
mp-1223153,La5Pb3O,0.0
mp-1223438,Na4La31(CoI12)5,0.012599999999999001
mp-1223555,KGaGe3O8,3.0675
mp-1223894,K5BaTaP4,1.2609
mp-1223942,HoGaAu,0.0
mp-1224851,GaCuGeSe4,0.7335
mp-1225307,DyCu5,0.0
mp-1225896,Er6Si11N20O,3.5911
mp-1226491,CeSi2RuRh,0.0
mp-1226503,CeSmB12,0.0
mp-1226702,CeGaCu4,0.0
mp-1227788,Ca2(TlPb)3,0.0
mp-1227958,BaGeAu3,0.0
mp-1228109,Ba8Li13GaSb12,0.0
mp-1228540,Al2VNi9,0.0
mp-1246649,Sr3Fe3N5,0.0
mp-12505,LuAgSn,0.0
mp-12723,CaAu,0.0
mp-1275,SiMo3,0.0
mp-12782,YbAl2Ni,0.0
mp-13069,Er(AlGe)2,0.0
mp-13122,CeGe3Ir,0.0
mp-13343,TmB4Rh,0.0
mp-1336,PdO,0.0
mp-13974,Ho2SeO2,2.225
mp-1462,Sn2Au,0.0
mp-14761,TmAu2F9,1.8684
mp-15214,K2NbAgS4,2.1502
mp-15653,CeSi2Ni,0.0
mp-1607,YbCu5,0.0
mp-16490,Lu2Al3Co,0.0
mp-16513,NdAl3,0.0
mp-16805,Cs2Ti(GeO3)3,2.9147
mp-16989,K5SnAs3,0.54
mp-1713,CsCd13,0.0
mp-17273,Ba(HoTe2)2,0.7814000000000001
mp-17391,Sm3Rh2,0.0
mp-17523,NaCrF4,3.2291
mp-17619,Sc2Mn2O7,0.0
mp-1776,UN2,0.7736000000000001
mp-1787,NdMg3,0.0
mp-17964,Na2Ge2Se5,1.402299999999999
mp-18003,CsCuS4,1.807999999999999
mp-18082,Sm3Ti3(SeO4)2,0.0
mp-18203,KGe2(PO4)3,3.6493
mp-18556,Rb2Cd3S4,1.7838
mp-18723,BaV2(NiO4)2,2.679599999999999
mp-18750,Mn(FeO2)2,1.220299999999999
mp-18975,Na2SrV4O12,3.0128
mp-19068,TmVO4,2.9608
mp-19469,Na5Tb(MoO4)4,3.937999999999999
mp-19512,BaV2(PO5)2,2.2711
mp-19791,Ca(GeRu)2,0.0
mp-20064,DyGa2,0.0
mp-20234,Li2BPt3,0.0
mp-20705,U2SnRu2,0.0
mp-20724,Mg2Pb,0.0
mp-20890,Eu(FeAs)2,0.0
mp-20896,TmInNi4,0.0
mp-20941,UIn3,0.0
mp-21372,CePRuO,0.0
mp-21756,Sr(In4Rh)2,0.0
mp-22028,GdMgPt,0.0
mp-22112,Ba2CoWO6,0.0
mp-2225,Be2Fe,0.0
mp-22295,Ca(Cu2P)2,0.0
mp-22363,Ba3NiRu2O9,0.0
mp-22479,Zr4Pd2O,0.0
mp-22678,Ce2Sb,0.0
mp-2327,TiZn16,0.0
mp-2450,CaSn,0.0
mp-2520,TmSb,0.0
mp-27556,CsNbO3,3.319
mp-27899,Cd3AsCl3,1.4525000000000001
mp-27947,Sn(SbTe2)2,0.2842
mp-28714,Dy(AlCl4)3,4.2673
mp-28969,Pr2NCl3,3.409399999999999
mp-28975,Bi2(PSe3)3,1.3081
mp-29531,CsBi3S5,1.4432
mp-2954,Dy(SiAu)2,0.0
mp-29555,MoBr2,2.122
mp-29562,Tl2MoCl6,0.0
mp-29603,Rb2ZrTe3,0.4973
mp-29817,GaP2I9,1.7115
mp-3034,MgAl2Cu,0.0
mp-30370,Cd3Au,0.0
mp-30623,Dy5Sn3,0.0
mp-30867,ScRu,0.0
mp-31084,ZrGe2Rh,0.0
mp-31171,Zn2AgAu,0.0
mp-31249,La2Te4O11,3.3661
mp-31309,RbInSe2,1.4736999999999991
mp-31354,Pr3OsO7,0.12440000000000001
mp-3138,Na8SnSb4,0.27340000000000003
mp-31514,Ba3Nb2CoO9,0.0
mp-3248,TbAsO4,3.6687000000000003
mp-343,PrN,0.41249999999999903
mp-35644,Sr3FeN3,0.0
mp-35739,ZrUN2,0.0
mp-4131,Sc(CoSi)2,0.0
mp-4771,TiAlCu2,0.0
mp-4790,ThGeO4,3.9068
mp-4793,U(SiPd)2,0.0
mp-4796,GdScGe,0.0
mp-4998,Sr2IrO4,0.0
mp-503,ThS,0.0
mp-504468,Bi3Ru3O11,0.0
mp-504598,Rb2PbO2,2.009299999999999
mp-504697,Mn2BiO5,0.416199999999999
mp-504772,Y3(SiRh)2,0.0
mp-504831,La3ReO8,1.8730000000000002
mp-510184,GdOs2,0.0
mp-510403,GdSb,0.0
mp-510494,La5Sn3,0.0
mp-510577,LaNiSnH,0.0
mp-510607,SrCrO4,2.857999999999999
mp-510696,Cs4Sn2Au7,0.0
mp-5116,K6Ge2O7,3.0827
mp-5167,Sm(NiGe)2,0.0
mp-5381,U2PN2,0.0
mp-540628,Al(TeCl2)2,1.3285
mp-541106,Nb2Se9,0.8003999999999991
mp-541687,K3GaSe3,2.0915
mp-542069,Cs8Ta6O19,3.4889
mp-542313,Ce2O3,0.0
mp-542374,KSn,0.7335
mp-542816,Zr5SiSb3,0.0
mp-552488,LaCuSeO,1.5380999999999991
mp-552963,Pr2Ti2S2O5,0.8289000000000001
mp-554090,Bi7Mo2(AsO8)3,2.5321
mp-554323,Ni3B7BrO13,2.9635
mp-554638,Ca2Ru2O7,0.0
mp-554847,SbP(Cl3O)2,2.2525
mp-555195,BaMo2P3O14,1.888599999999999
mp-556339,Hg3AsO4,1.7517
mp-556467,Rb4Nb2S10O,1.571599999999999
mp-556719,K2Ti(SiO3)3,3.3727
mp-557498,NaBi2AuO5,1.2339
mp-557816,Ba5Li2(WO5)3,2.2925
mp-558816,RbBi(MoO4)2,3.077599999999999
mp-558850,RbNd(WO4)2,3.4265
mp-559099,K3Cu(NO3)5,0.9875
mp-559710,NaInAs2O7,2.3178
mp-559779,Nd3SiS6Cl,2.5583
mp-560091,CsZr2(PO4)3,4.3355000000000015
mp-5611,BaUO4,2.1163
mp-567305,CeAl3,0.0
mp-567332,Ce,0.0
mp-567373,LaCN2Cl,3.2171
mp-567407,Dy5C2Br9,0.7994000000000001
mp-567419,SrLa6OsI12,0.0
mp-568012,Tb2Zn17,0.0
mp-568089,CeCoSb3,0.0
mp-568522,In3SnI5,2.0166
mp-568768,Yb2(CN2)3,0.0
mp-568967,Ba5Ga5Sn,0.0
mp-569745,YbMgSn,0.0
mp-570298,Ba(SbAu)2,0.0
mp-570462,Pr12Fe2I17,0.0
mp-570529,Eu2B4Rh5,0.0
mp-570558,Rb2NbCl6,0.0
mp-570700,Hf3Tl2(CuSe4)2,0.5666
mp-571010,CsEr(TaBr3)6,1.315099999999999
mp-571098,Lu(FeSi)2,0.0
mp-571147,Hf(SiNi)2,0.0
mp-571370,Fe2NiP,0.0
mp-571641,PrCdPd,0.0
mp-5720,Ho(SiRu)2,0.0
mp-572877,Co5Se4(ClO6)2,2.5898
mp-574430,BaUI6,0.24350000000000002
mp-5765,Nd(BC)2,0.0
mp-5796,Ho(MnSi)2,0.0
mp-580140,Nb6Co16Ge7,0.0
mp-5997,KMn6P7O24,3.7417
mp-600125,HfInCu2,0.0
mp-605771,TlIn(MoO4)2,3.6691000000000003
mp-605912,Al2NiCl8,0.5473
mp-608072,SrIn,0.0
mp-6125,RbTi2(PO4)3,2.6063
mp-612670,YNiBC,0.0
mp-618324,ZrCo3B2,0.0
mp-6248,LiGd(PO3)4,3.4713
mp-627355,CeGePt,0.0
mp-628305,K2MnSnSe4,0.2896
mp-630641,Sr2FeClO3,0.0
mp-636614,YPb2,0.0
mp-640052,Cs2AgBr3,2.7548
mp-643738,Eu(MgH3)2,0.15130000000000002
mp-656,LuS,0.0
mp-6621,Ba2ErRuO6,0.08749999999999901
mp-6676,Sr2HoRuO6,0.0
mp-672286,Eu3Ga2,0.0
mp-6723,Sr3ZnIrO6,0.0
mp-672645,TiSiRh,0.0
mp-672677,Ti6Co16Si7,0.0
mp-675733,Y5(ReO6)2,0.0
mp-675779,Li2Mo3S4,1.316399999999999
mp-679984,Cs4Ru2Cl10O,0.6547000000000001
mp-680048,RbW3Br7,2.688
mp-680219,UPb(SeO4)2,2.0683
mp-680436,Rb2LiSn4,0.9046000000000001
mp-680654,Sr3Rh4Pb13,0.0
mp-683899,Cu2P8Se3Br2,1.289899999999999
mp-7234,Nb5N6,0.0
mp-7322,CsU2O6,0.0089
mp-7420,KHgAs,0.0461
mp-7489,CsUF6,0.9398000000000001
mp-754019,Na4NpO5,0.6936000000000001
mp-755213,YbCO3,4.1309000000000005
mp-7564,Nb3Te4,0.0
mp-768472,Mn2(SO4)3,0.6132000000000001
mp-769404,YSeO3,1.822
mp-771766,Nb3Co(PO4)6,2.1091
mp-772820,SrLu2O4,3.8741000000000003
mp-774472,PrSO,1.4401000000000002
mp-817,TmTl3,0.0
mp-8467,YNiGe3,0.0
mp-8535,ErSi2Rh3,0.0
mp-861610,Tc3Pd,0.0
mp-861658,LiMnPt2,0.0
mp-861872,Ac2HgGe,0.0
mp-862543,Sc2AlTc,0.0
mp-862737,LiHgPd2,0.0
mp-862772,CsNd2CuSe4,0.9644
mp-862847,PaB3,0.0
mp-862966,PmTlAg2,0.0
mp-864630,LiMg2Hg,0.0
mp-864780,PaAlAu2,0.0
mp-865023,HfTc2Sb,0.0
mp-865031,Mg2ZnB2Ir5,0.0
mp-865049,HfMgPd2,0.0
mp-865099,NaLaHg2,0.0
mp-865381,Tm2IrRu,0.0
mp-865422,YbTmRh2,0.0
mp-865728,Ti2ReNi,0.0
mp-865745,GdCdHg2,0.0
mp-865751,YbDyRh2,0.0
mp-865875,Li3Ag,0.0
mp-865972,KTm2Cu3Se5,1.192499999999999
mp-866032,Dy(Ni2P)2,0.0
mp-866061,CaSmZn2,0.0
mp-866213,TiTc2Mo,0.0
mp-867135,ScZnPd2,0.0
mp-867260,CdAgPd2,0.0
mp-867315,CaGdHg2,0.0
mp-867419,KEuAsS4,0.0
mp-867570,Rb4Sb2O5,2.4295
mp-867811,TaMnRu2,0.0
mp-867820,LiAlPd2,0.0
mp-867883,La3Pb,0.0
mp-869,TaAl3,0.0
mp-894,ZnPt,0.0
mp-9159,Li4NpO5,0.5983
mp-950,NaZn13,0.0
mp-971754,V2ReW,0.0
mp-973662,Lu2ZnCu,0.0
mp-975789,PrTmMg2,0.0
mp-975972,PrLuMg2,0.0
mp-976406,MgMnPt2,0.0
mp-976724,Hf(VH2)2,0.0
mp-977361,ZnFeRh2,0.0
mp-977462,ZrCdAu2,0.0
mp-979259,V2ReMo,0.0
mp-979267,Ta2FeMo,0.0
mp-981377,V2ReTc,0.0
mp-981397,YbPrMg2,0.0
mp-982004,SmInPd,0.0
mp-982635,Tm3Al2,0.0
mp-989404,Ca6In2NF,0.0
mp-996161,Nb3AlC2,0.0
mp-999129,KTbS2,2.353399999999999
mp-999450,NaSmSe2,0.066
mvc-1655,Ba2CaCu3F14,0.0732
mp-10124,Tb(Ni2B)6,0.0
mp-10126,V5SiB2,0.0
mp-1017507,TmAu,0.0
mp-1017557,Dy3AlN,0.0
mp-1018131,LuAg2,0.0
mp-1018137,KEuS2,0.0
mp-1018892,PrCoSi,0.0
mp-1024999,HoCr2Si2C,0.0
mp-1025128,LaCuPb,0.0
mp-1025230,U2Re2C3,0.0
mp-1029828,RbCrN2,0.19029999999999903
mp-10379,Hf3(Cu2Ge)2,0.0
mp-1064719,LaNi,0.0
mp-1067280,TmTlSe2,1.3676
mp-1077279,DyNi4Au,0.0
mp-1078367,InNi2SbO6,0.0
mp-1078435,BaCd2Pt,0.0
mp-1078557,PrPt,0.0
mp-1078659,CaRhO3,0.0
mp-1078891,Sm(NiB)2,0.0
mp-1079171,NdNiGe3,0.0
mp-1079303,GdNiGe3,0.0
mp-1079312,NdSb2Au,0.0
mp-1079399,V3Fe,0.0
mp-1079564,EuCu4P3,0.0
mp-1079679,K2CdSn,0.081099999999999
mp-1079915,PrAu,0.0
mp-1080849,KReN2,0.0
mp-1087505,U(FeB3)2,0.0
mp-10876,Ca3Al7Cu2,0.0
mp-10884,AlFeCo2,0.0
mp-10909,AlRe2,0.0
mp-1095240,Ca3(GeIr)4,0.0
mp-1102043,LaOs2,0.0
mp-1102498,Ce2PPt8,0.0
mp-1103026,NdSi2Rh3,0.0
mp-1103153,CeSbSe,0.0
mp-1103226,TbS2,0.47949999999999904
mp-1103414,ZrSiPd,0.0
mp-1103685,Rb(MoSe)3,0.5141
mp-1104054,Y(Ni2P)2,0.0
mp-1104877,Lu3Pt4,0.0
mp-1105138,SrFe4(CuO4)3,0.0
mp-1105558,Ca5CdCu2,0.0
mp-1105603,Lu5Ge3C,0.0
mp-1105669,NdZn3,0.0
mp-1113338,Rb2ScAgCl6,3.3213
mp-1120763,Cs3VSe4,1.5131000000000001
mp-11288,Ca3Hg2,0.0
mp-11437,Er3Rh,0.0
mp-11441,Hf2Ga3,0.0
mp-11549,VPd2,0.0
mp-1172,MgRh,0.0
mp-1180150,Nb2FeO6,1.9304999999999999
mp-1184119,CuPd3,0.0
mp-1184223,ErScRu2,0.0
mp-1184554,Hg,0.307
mp-1185230,LaGdTl2,0.0
mp-1185339,LiEu2Ir,0.0
mp-1185504,LuTe,0.0
mp-1185590,Mg149I,0.002499999999999
mp-1185923,MgPd2Au,0.0
mp-1187343,RbMg149,0.021300000000000003
mp-1187520,YbSmAg2,0.0
mp-1187616,YbHoHg2,0.0
mp-1187701,Y2AgHg,0.0
mp-1187727,YbEuZn2,0.0
mp-1188138,Er2Ge5Ru3,0.0
mp-1188305,La(Ge3Pt)4,0.0
mp-1189162,Er4Ge6Ir7,0.0
mp-1189755,Nd5CuBi3,0.0
mp-1189762,EuCrO3,0.0
mp-1189990,U3Sb4Pd3,0.0
mp-1190038,Tm5Tl3,0.0
mp-1191040,Tb4Ni13C4,0.0
mp-1191074,CeNiB4,0.0
mp-1191810,La2Si3Rh,0.0
mp-1192309,Ca4Ni4Ge3,0.0
mp-1192357,Sr3LiAs2H,1.4556
mp-1192361,Zn11Co2,0.0
mp-1192819,MgFeSiO4,3.2699
mp-1192944,Ta4Ni2N,0.0
mp-1193172,Li2Mn(SO4)2,3.626299999999999
mp-1193210,Pb3Se2(IO3)2,2.7971
mp-1193700,Na3H5(SeO4)4,3.4814
mp-1194935,Sm3Si11Pt23,0.0
mp-1195553,Zr(Zn10Fe)2,0.0
mp-1195761,RbU2F9,0.16190000000000002
mp-1195773,Ba3As4(HO7)2,3.3682
mp-1197426,ZnP14Pb,1.1394
mp-1198195,Tm5Ir3,0.0
mp-1200066,Tl3Bi3(PS4)4,2.0969
mp-1200095,SrNp(PO4)2,0.05280000000000001
mp-1200122,Tm3Ge13Os4,0.0
mp-1200661,K(NaIn3)3,0.0
mp-1201443,Cs3Nb9(TeO8)4,1.4336
mp-1202399,Tm5(Si5Ir2)2,0.0
mp-1203437,GdH(SeO4)2,2.8802000000000003
mp-1204352,Y3Ga2,0.0
mp-1204381,Ce2Ni7,0.0
mp-1204407,TmCo3P2,0.0
mp-1204645,Dy2ReB6,0.0
mp-1205487,Er7(TePd)2,0.0
mp-1205619,Nd2CdRh2,0.0
mp-1206177,YSnGe,0.0
mp-1206770,NpGa5Rh,0.0
mp-1207011,ScInNi4,0.0
mp-1207125,Cs(FeP)2,0.0
mp-1207437,Zr9Re4O3,0.0
mp-1207571,Yb3SnH2,0.0
mp-1207670,YbSnF7,1.0283
mp-1207878,Y2(Ga3Ru)3,0.0
mp-1207965,Tm3Co2Si3,0.0
mp-1208288,U6Ta4Al43,0.0
mp-1208403,TiFeGe,0.0
mp-1209503,Rb8Zr6MnBr20,0.082899999999999
mp-1209796,PrInCu5,0.0
mp-1209836,NdZnGe,0.0
mp-1209869,SmTa6Br13O3,0.9535999999999991
mp-1209881,NbTlCl6,2.1687
mp-12100,Lu(SiNi)2,0.0
mp-1210051,NdAg(WO4)2,3.101599999999999
mp-1210749,Lu7(TeRu)2,0.0
mp-1211056,LiMoN2,0.0
mp-1211136,Lu2(MoO4)3,3.909399999999999
mp-1211167,LiCr4GaS8,0.7407
mp-1211402,La3SiI3,0.0
mp-1211543,LaAlRh,0.0
mp-1211555,LaGa4Os,0.0
mp-1211581,La2Ta3(SeO4)2,0.8768
mp-1212008,K2Hg3Se4,1.1091
mp-1212045,K(FeSb3)4,0.0
mp-1212518,GdTiClO3,3.031
mp-1212826,Er(Al5Ru)2,0.0
mp-1212984,DyMnFeO5,1.1497
mp-1213257,Dy6Nb4Al43,0.0335
mp-1213423,Eu2As3,0.0
mp-1213480,Er6Ni20As13,0.0
mp-1216621,TiW,0.0
mp-1217446,Ti2Tl3P5S18,1.3031000000000001
mp-1218745,Sr4CuIr2O9,0.23020000000000002
mp-1219472,Sc(AlFe)6,0.0
mp-1219852,Pr2Ga5Cu3,0.0
mp-1219934,Rb3(Cr5Te8)4,0.0
mp-1220035,NiTeSe,0.0
mp-1220237,Nd6Mn(SiS7)2,1.080299999999999
mp-1220783,Na5SrNbP4,1.314299999999999
mp-1221300,Na4Eu2GeP4,0.0
mp-1221662,MnAl2Cr3,0.0
mp-1222413,LiB3,0.08800000000000001
mp-1222929,LaAlNi4,0.0
mp-1223194,La4As2(S2O)3,1.916599999999999
mp-1223330,Lu4V5B18,0.0
mp-1223521,La2Ge4IrPd3,0.0
mp-1223584,KBi3S5,1.4224
mp-1223734,K2La2Sb2S9,1.179999999999999
mp-1224145,K2Mo2P2O11,2.4334
mp-1225447,ErPaO4,2.6787
mp-1226091,Cr8Cu3NiS16,0.0
mp-1226527,CeUN2,0.0
mp-1226999,Ce2Ga3Cu,0.0
mp-1227139,Ca5Co3(SiO4)4,2.742799999999999
mp-1227162,CaYb3Mn4O12,0.8546
mp-1227931,Eu16Sb11,0.0
mp-1228631,B4OsW,0.0
mp-1228740,Ba(AlSe2)2,3.0521
mp-1228975,Al2Cr3CuS8,0.188899999999999
mp-1232420,LiMg2Ir,0.0
mp-12453,HoCuS2,1.6148999999999991
mp-12481,LaPPt,0.0
mp-1270,Dy2S3,0.5948
mp-1297,Tl9Pd13,0.0
mp-13025,YbZnPd,0.0
mp-13027,YbZnAu,0.0
mp-13149,BaAlSi,0.0
mp-13350,RbUAgS3,0.0
mp-13467,Ce(GePd)2,0.0
mp-13508,Er4In(NiGe2)2,0.0
mp-13688,Ge2Mo,0.0
mp-13967,Nb5(CuSi)4,0.0
mp-1498,Al21Pd8,0.0
mp-15639,HgRhF6,0.0
mp-15652,Rh3(PbS)2,0.0
mp-15985,Zr3(Cu2Ge)2,0.0
mp-16066,Yb(Ni2P)2,0.0
mp-16225,Y3Si3Rh,0.0
mp-16321,SrCuP,0.0
mp-1684,ZnAu,0.0
mp-16921,KNa4GeAs3,0.6434000000000001
mp-17443,Cs2FeO4,1.6734
mp-17751,Y5Ge3,0.0
mp-1780,ScRh,0.0
mp-17986,TiTl2O3,2.0964
mp-17993,Ta2Mn4O9,2.4878
mp-1831,SrAu5,0.0
mp-18473,RbLa(MoO4)2,3.9717000000000002
mp-18545,CsV3(SeO6)2,2.315
mp-1898,CeSi2,0.0
mp-1907,TiTe2,0.0
mp-19094,VO2,0.0
mp-19172,KV3O8,2.121
mp-19337,Ba3CoSb2O9,0.0
mp-1955,ErCu,0.0
mp-200,LaP7,0.8723000000000001
mp-20188,GdCuAs2,0.0
mp-20225,CePb3,0.0
mp-20419,Ca4In2N,0.0
mp-20506,NbNiTe2,0.0
mp-20635,TbIn5Rh,0.0
mp-20792,Ca2InPd2,0.0
mp-20849,Pd3Pb,0.0
mp-20928,Sb2Ru,0.089199999999999
mp-20948,NbNiP2,0.0
mp-21223,YbIn2Ni,0.0
mp-2123,Nb3Au2,0.0
mp-21310,TbGeRu,0.0
mp-21438,LaInAu,0.0
mp-2159,DyTe,0.0
mp-21748,TbSi3Rh5,0.0
mp-21848,F2,0.0
mp-21890,NdCoSi,0.0
mp-21965,V8Ga41,0.0
mp-22138,GdCd3,0.0
mp-22394,ThRu3C,0.0
mp-22451,MoPRu,0.0
mp-22490,Sc3(NiGe)4,0.0
mp-22617,YNiSn,0.0
mp-22636,TaNiGe,0.0
mp-23182,SnI4,2.0284
mp-23569,AsSe6IF6,1.5792000000000002
mp-24069,MnH2(SO4)2,3.851
mp-24202,Th4H15,0.0
mp-24412,K2NaAlH6,2.3908
mp-26003,LiFe(PO3)3,3.8878999999999992
mp-26045,Li3Cr2(PO4)3,3.0281
mp-2636,GdMg,0.0
mp-27133,BiPS4,1.4875999999999991
mp-2714,Pr2Au,0.0
mp-27182,GdBr3,2.2085
mp-27783,CsReBr4,0.4053
mp-27935,AlICl6,2.2907
mp-28235,Tl(CuO)2,0.0
mp-2824,AlPd2,0.0
mp-28278,Na2GeSe3,1.6256
mp-28579,Hg3(TeI)2,1.3764
mp-28742,Ca4Ni3C5,0.0
mp-28755,GdCBr,0.0
mp-28914,Cd4P2Br3,1.3981