material_id,pretty_formula,band_gap
mp-865876,Ti2TcOs,0.0
mp-865949,TmNpRu2,0.0
mp-865959,LiHo2Ru,0.0
mp-866010,CaCdAu2,0.0
mp-866071,MgTaOs2,0.0
mp-866116,HoTaRu2,0.0
mp-866117,HfZnAu2,0.0
mp-866136,Zr6Al16Ru7,0.0
mp-866217,Gd2ZnRu,0.0
mp-866648,La(ZnAs)3,0.19110000000000002
mp-867196,LiCd2Pd,0.0
mp-867568,CsTi6O12,0.0
mp-867677,LiAgF6,0.8253
mp-867853,SmCdAg2,0.0
mp-867911,ScCdPd2,0.0
mp-867920,K2Rh2O5,0.0
mp-8808,Er2Si5Ru3,0.0
mp-8949,NdAsPd,0.0
mp-9025,YSiAu,0.0
mp-9033,Np(SiOs)2,0.0
mp-9201,K4Ge2Au7,0.0
mp-9241,HoCoC2,0.0
mp-9366,RbHoS2,2.3676999999999992
mp-9436,La3HfSb5,0.0
mp-9440,YbAgSb,0.0
mp-9460,Zn3N2,0.43250000000000005
mp-9497,Pr2C(NO)2,3.8091
mp-964,Cr3S4,0.0
mp-966740,Cs5Tl11Cd2,0.0
mp-974769,EuNiGe3,0.0
mp-977,LuIn3,0.0
mp-977392,Ho2MgIn,0.0
mp-977421,TbGaRh2,0.0
mp-977463,MgMnRh2,0.0
mp-985831,HfSe2,0.5549000000000001
mp-999137,SmTlSe2,1.4208999999999992
mvc-10096,CaFe2P2O9,2.058
mvc-11660,Ca(CoO2)4,0.0
mp-1001604,LuTlS2,1.391699999999999
mp-1005986,Zr9CoMo4,0.0
mp-1018707,GdSe2,0.0
mp-1018880,PaSb2,0.0
mp-1019519,Ba2NaO,0.0
mp-1019544,BaZrO3,3.117699999999999
mp-1020611,SrGe2(BO4)2,3.829499999999999
mp-1025304,Zr(TiGa2)2,0.0
mp-1025383,TlPPt5,0.0
mp-1025799,MoSe2,1.4168999999999992
mp-1056857,N2,0.0
mp-1061298,N2,0.0
mp-1065846,ZrBr,0.006600000000000001
mp-1068732,ThSi3Ru,0.0
mp-1076987,TaNiB,0.0
mp-1077102,TmSn2,0.0
mp-1077512,LaGeIr,0.0
mp-1079091,PrCu,0.0
mp-1080449,SmZnPd,0.0
mp-1080600,YbAl2Pd,0.0
mp-1094052,Sm3AlN,0.0
mp-1096840,Ba,0.0
mp-1096971,GaAgO2,0.5682
mp-1096977,H2,0.0
mp-1097910,NaMn8O16,0.8784999999999991
mp-1101462,NbTlO3,0.9617999999999991
mp-1101778,LaAlAu,0.0
mp-1102631,CaAlPt,0.0
mp-1102855,ScGeIr,0.0
mp-1102863,DyCoGe,0.0
mp-1103320,PrGeIr,0.0
mp-1103792,Nb2O2F3,0.0
mp-1103929,Yb(Ga2Cu)4,0.0
mp-11040,EuZnSn,0.0
mp-1104060,Nd2H5,0.0
mp-1105210,ScAlAu,0.0
mp-1105587,Ce3Bi4Au3,0.0
mp-1105605,Tb7FeI12,0.0
mp-1114590,Rb2NaInBr6,0.011600000000000001
mp-11190,VSi2,0.0
mp-11338,Sc3Si3Ni2,0.0
mp-1139,Co3Mo,0.0
mp-1176403,N2,0.0
mp-1179514,Sm5Pb3,0.0
mp-1181265,H2,1.517799999999999
mp-1181423,ErB2Ru,0.0
mp-1181498,Dy5SbAu2,0.0
mp-1183168,AcVO3,0.0
mp-1184144,Er2RuPt,0.0
mp-1184602,Hf2MnCo,0.0
mp-1185046,LaTmTl2,0.0
mp-1186562,PmErZn2,0.0
mp-1187505,YbYHg2,0.0
mp-1187629,YbPaIr2,0.0
mp-1187656,YbCeAu2,0.0
mp-1187950,Yb2ZnIr,0.0
mp-1188066,ZrInCo2,0.0
mp-1189120,Ho3Ir,0.0
mp-1189125,Lu2Se3,1.360099999999999
mp-1189287,Er4Ge6Os7,0.0
mp-1189505,N2,0.2737
mp-1190112,Sm2Ge5Rh3,0.0
mp-1190156,Ba2GdGaSe5,1.276
mp-1190600,La3SbO7,2.8144
mp-1190756,Lu8In3Co,0.0
mp-1191160,GdVB4,0.0
mp-1191667,NdPS,0.32829999999999904
mp-1193251,LaBe13,0.0
mp-1193468,NaMnVO4,2.3708
mp-1193553,BiBPbO4,2.8084
mp-1193999,ZnAgPO4,1.77
mp-1194045,Zr4Co4Si7,0.0
mp-1195404,Hf3NiSb7,0.0
mp-1195433,K4Ge(PSe3)4,1.3986
mp-1195486,Na2P4Pd3O14,0.8541999999999991
mp-1195703,Rb4Ge(PS3)4,2.1049
mp-11965,Ce2CdPd2,0.0
mp-1197050,Y2ZrS5,1.229999999999999
mp-1197647,PrMoClO4,2.651799999999999
mp-1197756,KY(BH4)4,6.0463
mp-1198917,ZrMnGe2,0.0
mp-1199825,Eu(SeO4)2,0.0
mp-1200190,PrSiP3,0.25120000000000003
mp-1200617,Sc(BRu)4,0.0
mp-1200815,Sc13Os3Br16,0.0
mp-1200882,SrCdB2O5,3.5659
mp-1200955,La21Mn8Bi7C12,0.0
mp-1200995,Sm2Ni7,0.0
mp-1201162,TeS7Br2,2.0936
mp-1201410,Sb4Au(Xe2F11)2,0.36510000000000004
mp-1201472,Cs3SbO4,2.7548
mp-1201774,Cs3AsSe4,1.5643
mp-1202310,HfHg4(PCl3)2,2.0914
mp-1202377,Zr2Te4Br2O11,2.8489
mp-1203122,Ce2ZrS5,0.0
mp-1203526,Cd4As2Br3,0.9704
mp-1203991,K2Pd(S4O13)2,1.6537000000000002
mp-1204465,Fe3P4PbO14,0.6250999999999991
mp-1204512,CsMnInTe3,1.2444
mp-1205014,Pu2IO10,0.034599999999999
mp-1205365,La2Zn5Sn,0.0
mp-1205528,SmSiOs2C,0.0
mp-1205711,La2Ru2I,0.0
mp-1205720,HoMn2SiC,0.0
mp-1206386,Mg(Co2Ge3)2,0.0
mp-1206399,Rb2LiVCl6,0.0
mp-1206595,LiTiSe2,0.0
mp-1206977,GdNiAs,0.0
mp-1207016,Dy6MnBi2,0.0
mp-1207636,YbCu5Sn,0.0
mp-1207651,YMnFeO5,1.126
mp-1207705,TmRhO3,0.956199999999999
mp-1207854,UNiAs,0.0
mp-1208478,Tb4MgRh,0.0
mp-1210057,P3Pb5BrO12,3.236599999999999
mp-1210067,Nd3Cu3Bi4,0.37069999999999903
mp-1210639,Mn5V2(HO3)4,1.708699999999999
mp-1210819,LiMg2H7Os,3.3022
mp-12112,CdP2,1.591399999999999
mp-1211487,K2YbF5,0.0
mp-1211618,KSm(SO4)2,5.706399999999999
mp-1211942,HoCu5Sn,0.0
mp-1211960,K2Ge2O3,2.0417
mp-1211992,K9Nd(PS4)4,2.7271
mp-1212067,InSbO4,0.9094999999999991
mp-1212088,HoAlRh,0.0
mp-1212241,Nd8Ni18P11,0.0
mp-1212655,Gd2MnNiO6,1.868
mp-1212961,Eu2N,0.0
mp-1213014,ErTl(WO4)2,2.850599999999999
mp-1213032,ErMnFeO5,1.1628
mp-1213206,CsP7,1.3124
mp-1213316,CsNd(MoO4)2,3.69
mp-1213736,Cs2LaBr5,3.3266
mp-1214072,Ce3Cr10N11,0.0
mp-1214459,Ba8Ho3(Pt2O9)2,0.0
mp-1214487,Ba3ZnSb2O9,1.9603000000000002
mp-1214599,Ba2MoO3F4,3.1637
mp-1214901,Al12Fe7,0.0
mp-1214988,AgMo6Cl13,2.2960000000000003
mp-1215495,YbZnCuSi2,0.0
mp-1215517,Zr2MnFe3,0.0
mp-1216184,Y(CuS)3,1.2617
mp-1216554,Tm2TeS2,1.8342
mp-1216909,TiNbTlO5,2.4465
mp-1217392,Tl5Re6S8Cl7,2.349
mp-1217442,TbYNi2,0.0
mp-1217458,TbUTe6,0.0
mp-1217656,TbU3(CoGe)8,0.0
mp-1218044,Ta3Ru2,0.0
mp-1218686,Sr2TiMnO6,0.9951999999999991
mp-1219488,Sc2(NbGe)3,0.0
mp-1219631,RbTaTiO5,3.0011
mp-1219656,Rb(SiPt)4,0.0
mp-1220062,P3Pb5BrO12,3.2231
mp-1220064,Pr9Al5Se21,1.788399999999999
mp-1220750,Nb10Ge6C,0.0
mp-1220786,Nb12TlTe16,0.0
mp-1222078,Mn(CuTe)2,0.0
mp-1222659,Li2GaAg,0.0
mp-1223292,La2(CuNi)5,0.0
mp-1223523,KLu(NbCl3)6,1.0845
mp-1224193,HfZrMo4,0.0
mp-1225492,Eu2MnP3Pt7,0.0
mp-1226494,CePaO4,0.0
mp-1226556,CeThN2,0.0
mp-1227240,CaNb4O8,0.0
mp-1227757,Ca3BiAu14,0.0
mp-1228544,Ba2MnTeSe2,0.0
mp-1228584,Ba4MgTa10O30,2.5027
mp-1228920,CsFeCuF6,0.0
mp-1228932,Ba11(Bi3O10)3,0.0
mp-1228971,AlV9Au2,0.0
mp-1229194,AgAu(IO3)4,1.2556
mp-12444,SrCuSF,1.5126
mp-12693,Mg2Rh,0.0
mp-1274783,SrLaCoO4,1.3403
mp-1276666,SrLaCoO4,1.348399999999999
mp-1312000,La4FeSe6O,1.6328
mp-1313955,Li4Ni3SbO8,0.2214
mp-13155,Hf2Ag,0.0
mp-13490,ErAl3Ni2,0.0
mp-13664,Sr2Ta2O7,2.9294000000000002
mp-1409,TiNi3,0.0
mp-1425,TiCr2,0.0
mp-14280,Ga2Sn2S5,1.6994
mp-1441,CsO2,0.0
mp-1444,CaCd2,0.0
mp-1518,CeRh3,0.0
mp-15576,Dy3Ga5O12,3.3047
mp-1570799,MgCrP2O7,3.0396
mp-16297,Sc3SnC,0.0
mp-1673,Tb5Ge4,0.0
mp-1687,BaPd2,0.0
mp-17168,Er3Ni7B2,0.0
mp-1728,LuRh2,0.0
mp-17291,Na3SiTe3,1.948799999999999
mp-17380,Ba2Ca(PdO2)3,1.3900000000000001
mp-17544,Ca(CoO2)2,1.6139000000000001
mp-1756,ThB6,0.0
mp-17617,K2Ti(Si2O5)3,3.4404
mp-17677,Nb9PO25,2.2459
mp-17989,K3PS4,2.7739000000000003
mp-18002,KLi3GeO4,3.914399999999999
mp-1813,Ba2Mg17,0.0
mp-18337,Be3N2,3.7166
mp-18773,WO3,1.3385
mp-18928,Mn2SiO4,1.988499999999999
mp-19377,LiLa2MoO6,1.612099999999999
mp-19388,BaNi2(AsO4)2,2.9285
mp-19484,BaCaV2O7,3.2315
mp-19617,Rb(WO3)3,0.0
mp-19942,BaGdAuSe3,0.7805000000000001
mp-19944,Sr3PbO,0.0
mp-19945,Gd2MgGe2,0.0
mp-20479,SrIn4Ni,0.0
mp-20542,Pr(MnGe)2,0.0
mp-20601,NdPb3,0.0
mp-20646,Sm(MnGe)2,0.0
mp-20786,Dy3In,0.0
mp-2096,YbMg2,0.0
mp-21422,YCoC,0.0
mp-21490,CeSnPd,0.024099999999999
mp-21499,YbInPd,0.0
mp-21996,Na5NiO4,1.8963
mp-22113,Ca2Fe2O5,0.8630999999999991
mp-22261,InCuTe2,0.0
mp-22729,La3(GePd)4,0.0
mp-22783,EuPAu,0.0
mp-2313,MgIn,0.0
mp-23895,MnPH2O5,2.4602999999999993
mp-24081,ScHCl,0.0
mp-24694,Zn(H2N)2,2.3713
mp-2478,NbSi2,0.0
mp-2499,BaSi,0.0
mp-25,N2,7.456399999999999
mp-2627,DyAs,0.0
mp-2642,CdAg,0.0
mp-2654,Al2S3,3.2438000000000002
mp-2675,MgNi2,0.0
mp-26963,LiVPO5,1.569599999999999
mp-27258,P3Au2,0.0
mp-27468,U2BiN2,0.0
mp-27686,Cd2P2O7,2.9866
mp-28018,Be(H2N)2,3.3225
mp-28178,NaNbCl6,2.2385
mp-2822,TmSe,0.0
mp-28352,YSiRh2,0.0
mp-28385,Sc5(Re2Si3)4,0.0
mp-2856,Mn4Al11,0.0
mp-28653,NdTa3O9,3.256199999999999
mp-2868,Th11(Ru2C3)6,0.0
mp-28692,Cs2CuF6,0.0
mp-28823,Ba4P3,0.7464000000000001
mp-28862,Y6RuI10,0.0
mp-29284,Ca2Sb2S5,1.529099999999999
mp-29408,AlSeBr7,2.177699999999999
mp-29564,Ba2Mg3Si4,0.0
mp-29682,BaAg8S5,0.45659999999999906
mp-29685,RbAg5Se3,0.0
mp-29743,Sr5U3O14,2.0422
mp-29884,ZnNi10P3,0.0
mp-29893,Hg2MoO4,2.1349
mp-2994,Co2(GeTe)3,0.441399999999999
mp-2997,ThB2C,0.0
mp-29985,LiNb6Cl19,0.732
mp-30590,LaCu6,0.0
mp-30677,Tm3Ga5,0.0
mp-30731,HoSnPd2,0.0
mp-30777,MgPt3,0.0
mp-30815,LaAl3Pd2,0.0
mp-30910,Mg2Ga5Cu6,0.0
mp-30971,CuTe2Cl,0.601799999999999
mp-31427,ErInNi,0.0
mp-31513,Nb2Co4O9,0.0
mp-3193,Na2Si2O5,4.4754000000000005
mp-32581,Pr2Te3,0.8830999999999991
mp-3385,Sr(PPd)2,0.0
mp-3555,LaSiIr,0.0
mp-3694,NdPS4,2.2595
mp-3797,K3AsS4,2.0132
mp-3799,GdSF,0.0
mp-38637,Rb(WO3)6,0.0
mp-3958,Er(SiOs)2,0.0
mp-4393,Cs4U5O17,1.5343
mp-4458,Th(MnSi)2,0.0
mp-467,Th3N4,1.6680000000000001
mp-4861,Sr(CuAs)2,0.0
mp-504196,Mo2P2O11,1.9799
mp-504669,KBiF6,2.75
mp-505540,TiAsRh,0.0
mp-505686,GdH3,0.037199999999999005
mp-510426,Ta4Te16Pd3,0.0
mp-517,TaSi2,0.0
mp-531527,Ba3Ti20O40,0.0
mp-5408,Ag3AsO4,0.0
mp-541354,K2(TcSe2)3,0.9365999999999991
mp-541684,K3AlP2,0.6989999999999991
mp-541849,Al3(BRu2)2,0.0
mp-542171,HoNiGe,0.0
mp-542681,Na3In2Ag,0.0
mp-542992,DyGa3Ni2,0.0
mp-552191,Ba2TbBiO6,1.8275000000000001
mp-554265,ZrSCl6O,3.2649
mp-554750,Rb6U(Mo2O9)2,2.3604
mp-554821,Tb(IO3)3,3.4104
mp-554832,MoP3Pb2O11,3.3124000000000002
mp-555408,SbS7IF6,2.0004
mp-555955,LaSeO3F,3.7527
mp-556006,OsCl4O,1.0652
mp-556517,K2PbO2,1.9848999999999992
mp-557584,K4Ba(GeO3)3,3.2426
mp-557624,CePO4,0.168499999999999
mp-557713,Ba2LaTaO6,3.635099999999999
mp-558073,Sb2SeI2F11,1.400399999999999
mp-558805,Na3Nd(BO3)2,3.7653
mp-559128,CaTeCO5,3.846599999999999
mp-559141,Ba5Cu4ClF17,0.020700000000000003
mp-559186,BaBiBO4,3.562099999999999
mp-560040,Ca2Nb2O7,2.9996
mp-560444,Cs2V4O9,2.3232
mp-561057,SbP2O7,1.9818000000000002
mp-561130,Na3GaS3,2.6127000000000002
mp-561382,NbBi4BrO8,1.475699999999999
mp-561520,Cr3B7ClO13,2.7083
mp-561610,Ca3MnCoO6,0.0
mp-561743,Li2CoSiO4,3.3151
mp-568121,Mn4Si7,0.8097999999999991
mp-568263,GaSe,1.218
mp-568591,La3CI5,0.21450000000000002
mp-569048,MgBIr,0.0
mp-569468,CdI2,2.431899999999999
mp-569689,Eu2PI,0.0
mp-569855,MoCl5,0.0
mp-569940,K3Bi,0.037000000000000005
mp-569941,Ce3Sb3Au2,0.0
mp-570005,SbBr3,3.118999999999999
mp-570089,CdI2,2.4122
mp-570492,CdI2,2.4254
mp-570552,CdI2,2.4742
mp-570610,CdI2,2.4284
mp-570769,CaInCu4,0.0
mp-570781,CdI2,1.9816
mp-571279,ZrI2,0.24659999999999901
mp-571616,CdI2,2.456699999999999
mp-573631,Cs3As7,1.5702999999999991
mp-5739,U2SN2,0.0
mp-579536,CsCu2ICl2,2.0373
mp-580236,EuCd,0.0
mp-582042,CdI2,2.4223
mp-583740,Zr7P4,0.0
mp-601867,Ba3(SnP2)2,0.8691999999999991
mp-606102,Ce3In3Ru2,0.0
mp-6101,Ba3Nb6(Si2O13)2,2.2806
mp-615833,Cs2SbCl6,0.093999999999999
mp-616023,Cs4Fe3F10,3.5092
mp-623043,GdInRh,0.0
mp-625397,Nd(HO)3,3.7548999999999992
mp-6272,NaEuP2O7,0.0
mp-639690,PuS2,0.0
mp-640563,UCl2O,0.0
mp-642428,Y3Al19Ni5,0.0
mp-645555,KUVO6,1.9565000000000001
mp-646586,Sm6InCo2,0.0
mp-6481,Na2ZnSi3O8,3.9475
mp-651710,Ce20Ti11(S22O3)2,0.0
mp-6539,RbTiPO5,3.0591
mp-667283,Sr5Re3ClO15,2.338
mp-669311,In7Te10,0.8148999999999991
mp-669391,Ca4Zn2Cu3P5,0.0
mp-669458,Cs3Bi2I9,2.3629
mp-672265,Cu3Pd,0.0
mp-672273,AlBiCl6,3.7417
mp-675374,Al2PbSe4,2.0161
mp-6785,K3UO2F5,2.7237
mp-680944,Nb2O5,1.6157
mp-696057,LiMg4H13Os2,3.3174
mp-697283,H8W(S2N)2,1.9874
mp-704125,Nd2Zr3(MoO4)9,3.4865
mp-7226,V3Ni,0.0
mp-7249,Ba3Nb2ZnO9,2.7269
mp-754417,H2,0.0
mp-754514,N2,0.0
mp-755277,Tb3SbO7,2.7605
mp-755404,Gd3SbO7,2.4797000000000002
mp-758202,Li2NbCr3O8,1.9498000000000002
mp-759378,Nb3Tl3O10,0.22440000000000002
mp-761281,FeSbO4,0.0
mp-768372,SbBrO,2.6377
mp-770668,Li24Mn11CrO36,1.24
mp-772403,NbVO4,0.9857
mp-773062,Li2Mn3CuO8,0.0
mp-773130,Co(NO3)4,0.134999999999999
mp-777452,LiNbCoO4,2.2403
mp-799,V3S4,0.0
mp-819,HfCr2,0.0
mp-862374,CdInPd2,0.0
mp-862696,CeGa3,0.0
mp-862754,PrBS3,2.4637000000000002
mp-862991,Pm2AgRu,0.0
mp-863672,ErMgCd2,0.0
mp-864603,YbH2,2.8872
mp-864972,Mg2PdAu,0.0
mp-864982,DyBr3,3.0138
mp-865148,PaAlTc2,0.0
mp-865157,Dy2ZnIn,0.0
mp-865364,DyTaRu2,0.0
mp-865423,UB4W,0.0
mp-865582,Li2CdPd,0.0
mp-865616,Yb2AgIr,0.0
mp-865874,Li2AgHg,0.0
mp-865902,YbB4Os,0.0
mp-865914,TiVTc2,0.0
mp-865926,Cd2PdRh,0.0
mp-866008,Dy2TlAg,0.0
mp-866133,Lu2TlCd,0.0
mp-866175,Yb2CdIn,0.0
mp-867158,SmCd3,0.0
mp-867181,SmMgHg2,0.0
mp-867762,DyMgAu2,0.0
mp-867775,Al2NiRu,0.0
mp-867838,AcAu3,0.0
mp-867875,SmCl3,3.5875
mp-867917,CuGeRh2,0.0
mp-867985,SmPbAu2,0.0
mp-8809,BaLa2PtO5,2.640799999999999
mp-8851,BaCuP2O7,0.0
mp-928,HoIr2,0.0
mp-972380,Tb3ReB7,0.0
mp-972650,SmDyRh2,0.0
mp-973185,ScAgO2,2.1269
mp-973834,PdAu3,0.0
mp-973940,LiCd3,0.0
mp-974517,NdErMg2,0.0
mp-974770,NdZn2Cd,0.0
mp-975609,Li2TlPb,0.0
mp-979967,Yb2GaHg,0.0
mp-980205,YB4Os,0.0
mp-981935,Li5Mg,0.0
mp-989591,K2BrCl6F,1.2492
mp-996978,CuAuO2,0.0
mp-996990,BaAgO2,0.0
mp-997158,CoAuO2,0.5960999999999991
mp-998750,KAgCl3,0.0
mp-999177,SmGa,0.0
mp-999447,NaSmTe2,1.219199999999999
mvc-15272,Ca2CoN2,0.0
mvc-5634,Ca2CuIrO6,0.0
mp-10014,TaS2,0.0
mp-1007923,CrNi3,0.0
mp-1017531,VPt,0.0
mp-1023940,MoSe2,1.4242
mp-1025325,NpGa5Co,0.0
mp-1025572,WSe2,1.5182
mp-1025576,Te2Mo,1.1875
mp-1028698,WSe2,1.6769
mp-10500,Ho5Ni2Sb,0.0
mp-1070400,Ba(NiAs)2,0.0
mp-1077297,Zr2Ir,0.0
mp-1077953,Eu4As2O,0.0
mp-1078274,Ca2SnGe2,0.0
mp-1078703,NaZn4As3,0.0
mp-1078762,RbCu4Se3,0.0
mp-1079244,EuGa,0.0
mp-1079334,SrTcO3,0.0
mp-10795,TaTlS3,0.6057
mp-1095627,ThVB4,0.0
mp-1096858,Ba3TaNb4O15,0.0
mp-1100786,Ni11As8,0.0
mp-1101461,Rb2ZrO3,3.5377
mp-1103217,HoAsSe,0.2134
mp-1103457,Eu3Zn2(CuP2)2,0.0
mp-1103947,La2H5,0.0
mp-1105189,Cu2AgPS4,1.0718
mp-1105272,Sr2ZnWO6,3.5309
mp-11419,ThGa2,0.0
mp-11522,Ni3Sn,0.0
mp-11644,Li2Ca,0.0
mp-1173282,Sr2FeMoO6,0.728499999999999
mp-1173305,ScPaO4,2.6627
mp-1174,MgSc,0.0
mp-1176780,LiCoS2,0.6055
mp-1176793,Li9Mn12Ni3O32,0.0
mp-1178475,Cs5YO4,1.9300000000000002
mp-1179023,SrZnSb2,0.0
mp-1179404,SmAgAs2,0.0
mp-1182400,Ba3LaIr2O9,0.0
mp-1182483,Ba4Pr(RuO4)3,0.0
mp-1183390,BaSnHgS4,1.8559
mp-1183484,Ca,0.0
mp-1183595,CaYbTl2,0.0
mp-1183799,DyHoZn2,0.0
mp-1184507,Er4Ga21Ni10,0.0
mp-1185167,LaP5,0.167099999999999
mp-1185209,Li2ZnSi,0.0
mp-1186256,Nd2TlAg,0.0
mp-1186510,PrSmIn2,0.0
mp-1186550,PmCdCu2,0.0
mp-1186570,PrDyIn2,0.0
mp-1187269,Tb2TlHg,0.0
mp-1187459,TiGaCu2,0.0
mp-1187630,YbHoZn2,0.0
mp-1187885,Yb2CdGa,0.0
mp-1188051,Zr3Bi,0.0
mp-1188115,Cs3ZnBr5,3.6631
mp-1188281,Cs5Te3,0.9408999999999991
mp-1188506,La3Ir,0.0
mp-1188637,Tl5Te2Br,0.45759999999999906
mp-1188652,TmAgSe2,1.7247999999999992
mp-1188655,Ir2S3,0.780999999999999
mp-1189056,MgCu2GeS4,0.7996999999999991
mp-1189131,Ho5Ni2Bi,0.0
mp-1189144,Zr2Si4Ni3,0.0
mp-1189731,PBr3O,3.2974
mp-1189759,Pr7Ir3,0.0
mp-1191597,Sm3SbO7,2.6519999999999992
mp-1192837,AlSb5Se5Cl4,1.395099999999999
mp-1193134,GdMoBrO4,0.0
mp-1194601,Cs2CdGe3S8,2.3475
mp-1194700,Li4SnSe4,1.6925999999999992
mp-1195574,Ba2GaSe4,1.0722
mp-1196166,CuP4S3Br,1.9243000000000001
mp-1196220,TbH7C4O11,3.5586
mp-1196927,Ba4Sm3Cl16,0.0
mp-1197561,B10H13Br,3.3403
mp-1197851,Tb2(MoO4)3,3.5874
mp-1200391,KNb(BO3)2,3.5488
mp-1200473,HC2N3,2.4047
mp-1200673,MgH18I2O9,3.8473
mp-1200867,La(Al10Cr)2,0.0
mp-1200878,KSb2PO8,2.3699
mp-1201749,Sr2As2O7,3.350099999999999
mp-1203921,LaNi3B,0.0
mp-1204271,Hf7Tl18Pb2S25,1.4949
mp-1204878,Nb10Se40I3,0.12890000000000001
mp-1205353,KMnF3,2.4091
mp-1205468,BaNb8O14,0.31460000000000005
mp-1208070,U3TlF13,0.0
mp-1208648,Tl3Mo4(P2O11)2,1.0921
mp-1210603,MgZn2(PO4)2,3.9613
mp-1211055,LiPt3O4,0.0
mp-1211391,KPr(MoO4)2,3.3306
mp-1211635,LaTi3(BiO4)3,2.2544
mp-1211816,KIn(PSe3)2,1.3518
mp-1212908,Eu3SbO7,0.0
mp-1212973,Eu3Ti2O7,0.0
mp-1213184,CsSm(MoO4)2,3.6384
mp-1214135,Ca2TaInO6,3.849
mp-1214306,Ca8In3,0.0
mp-1214399,Bi2(Pb2S3)3,0.756
mp-1215535,YbGa3Cu,0.0
mp-1215681,YUAs2,0.0
mp-1216053,YEr3V4O16,2.9654
mp-1217098,Ti4CuAg,0.0
mp-1217432,V20Ga(GeS10)4,0.027000000000000003
mp-1217816,TaVH4,0.0
mp-1217943,TaNb3V4O20,1.9465
mp-1218100,Ta3NbV4O20,2.0999
mp-1218549,Sr4Fe3MoO12,0.0
mp-1218963,SmV2BiO8,3.076899999999999
mp-1218975,SmYS2,0.0
mp-1219160,Sm6Cu8P8O3,0.0
mp-1219707,PrNdAl4,0.0
mp-1220409,Nb6OsAu,0.0
mp-1220584,Nb9AsO25,2.2338
mp-1220657,Nb3S5,0.0651
mp-1220795,Nb12Sn3Sb,0.0
mp-1220914,Nb2Ni5Te6,0.0
mp-1220949,Na7Fe4P9O32,2.6487
mp-1221198,Na4AgCl5,2.7446
mp-1221387,MoW,0.0
mp-1221436,MoCl6,1.1308
mp-1221499,Mo2RuSe4,0.3603
mp-1221699,MnB4W3,0.0
mp-1221802,Mn2P2O7,2.8531
mp-1221818,Mn2V2O7,1.2817
mp-1221858,MnNb4FeO12,2.516
mp-1222050,Na10Sn4Au13,0.0
mp-1222090,Mg6SiGe2,0.27129999999999904
mp-1222513,Li3Fe2CoO6,2.076599999999999
mp-1222852,LaNdZr2O7,3.5028
mp-1222862,LaPrNi10,0.0
mp-1223092,La3NdZr4O14,3.6191
mp-1223385,KSb5O13,0.7957000000000001
mp-1223488,KIn5S8,1.286
mp-1223664,K2H4Pt,2.6551
mp-1223952,Ho2NiSb4,0.0
mp-1224175,In3CuSe5,0.21760000000000002
mp-1224228,HfZrCN,0.0
mp-1224331,Hf4AgPd,0.0
mp-1224509,GdY3V4O16,2.9677000000000002
mp-1224710,Gd3YV4O16,2.9733
mp-1225370,DyCdIn,0.0
mp-1225500,DyHoAl4,0.0
mp-1225740,Er2Mn3Sb3O14,1.1665
mp-1225832,Cu2SnS3,0.0014000000000000002
mp-1226043,CsFeCoF6,1.833
mp-1226577,CeTh4O10,1.7512999999999992
mp-1226655,CeB2Ru2Rh,0.0
mp-1227595,Ca2Bi3Au10,0.0
mp-1228559,Al5Ni41B12,0.0
mp-1228578,Ba2Ta15O32,0.0
mp-1228716,Ca3Ga2(SnO4)3,2.143799999999999
mp-1229122,Ag2HgI4,1.490599999999999
mp-1239324,TiMo(PO4)3,1.352299999999999
mp-12467,Ca5Sb3,0.0
mp-12648,Ti2Be17,0.0
mp-1272313,Li2NiO2F,0.5939000000000001
mp-1272719,Sr2TaMnO6,1.2147000000000001
mp-1272804,LiMn2O4,0.42689999999999906
mp-1273212,Fe(HO)2,2.5359
mp-1277926,La2MgFeO6,0.6817000000000001
mp-1279343,CoNiO3,1.0203
mp-12798,Ni3Pt,0.0
mp-1280011,Ba2FeWO6,2.5061999999999998
mp-12843,YCuS2,1.7908
mp-1285565,YCrO4,0.8308999999999991
mp-1286142,BaFe2(PO4)2,3.7313
mp-1286228,MnAgO2,1.2243
mp-1295700,Sr2CoO4,0.6593
mp-1299167,Ba2FeMoO6,0.8861000000000001
mp-1299846,VReO4,0.0
mp-1303958,Li2Ni3SbO8,0.6613
mp-13056,Ba2LaTaO6,3.6566
mp-1309047,Li2V3WO8,1.6544999999999992
mp-13268,GdCo4B,0.0
mp-13994,Ti3NiS6,0.0
mp-14024,Zr3O,0.0
mp-1469,P4S3,2.8851
mp-15016,Nd4Si2Se3O7,2.6336999999999993
mp-15387,Ba6Cu11F34,0.372299999999999
mp-1557,Mg3Au,0.0
mp-1569682,MgNi(GeO3)2,2.3584
mp-1574993,V2OF5,1.9162
mp-16185,Mn6AgP7O24,2.4581
mp-16523,Al3Pd5,0.0
mp-16870,Ba2CdSe3,1.574799999999999
mp-17138,KMoPO6,2.8634
mp-1739,Hf5Ge3,0.0
mp-17666,Nd3OsO7,0.0
mp-18165,Na3GaS3,3.0946
mp-18622,Hf7P4,0.0
mp-1877,HoAl3,0.0
mp-19138,BaNiO3,1.5421
mp-19156,BaMnO3,0.0
mp-19342,WO3,1.355999999999999
mp-19821,Cr2GeC,0.0
mp-20938,RbIn5S8,1.5322999999999989
mp-21041,Tb(FeP3)4,0.0
mp-21228,SrCuSeF,1.197499999999999
mp-21283,Cs2PbO3,1.667799999999999
mp-21452,Pb3O4,1.177299999999999
mp-21567,SmAl3(PbO4)2,3.1612
mp-21787,Eu4Au2O9,0.0013999999999990001
mp-23091,Ba2BiSbO6,1.9837999999999991
mp-23092,Ba2TaBiO6,2.7412
mp-23496,CsAg2I3,2.7876000000000003
mp-23706,YH3,0.0134
mp-23979,K3H(SeO4)2,3.5728
mp-26184,LiFe2P5O16,2.5685000000000002
mp-27254,Ba(TeO3)2,1.826999999999999
mp-27343,Re4Cl8O9,1.0277
mp-27878,NaSb5O8,2.7038
mp-28269,Cs2SbBr6,0.0
mp-28294,Sb11F43,3.509299999999999
mp-2844,ThSi2,0.0
mp-28749,CrXeF6,1.9084
mp-28856,Na7Au5S6,2.215799999999999
mp-28927,Ba(NiP2)2,0.0
mp-29109,SiI3,2.8504
mp-29216,Cs2PtCl4,2.2321
mp-29519,KAuI4,0.3003
mp-29532,Ca11(ReO6)4,0.0
mp-30082,Ni19Ge12,0.0
mp-30314,Cs2PdCl4,1.85
mp-30850,TaPt3,0.0
mp-31485,Ga5Pd13,0.0
mp-32523,LiV(PO3)4,2.2834
mp-3516,UTeO5,1.8508
mp-3612,NbSbO4,2.3945
mp-3682,KCuF3,0.0
mp-37741,Ba(LaSe2)2,1.7934
mp-3904,Mg2GeO4,3.0801
mp-4048,Sr6(RhO3)5,0.0
mp-4198,Ag3PO4,0.33329999999999904
mp-4246,Li2TbF6,0.33690000000000003
mp-504644,KCeF4,0.101899999999999
mp-504815,Re5(NiAs6)2,0.0
mp-505078,BaNb7O9,0.0
mp-505551,InPH2O5,3.3327
mp-505562,CrCuO2,1.8698000000000001
mp-505619,Ce11O20,0.0
mp-510099,In3Au10,0.0
mp-510554,Nb12O29,0.0
mp-5182,Nd2Fe14B,0.0
mp-5226,K2SeO4,3.611999999999999
mp-540618,K3IO5,1.2925
mp-540763,TiMn2O4,1.3982
mp-541380,RbSnS4,1.3934
mp-541648,Ba2FeCoF9,2.0227
mp-541667,Nb(SeBr)2,1.0469
mp-541856,U3TiGe5,0.0
mp-550081,Ba2LaIrO6,0.0
mp-550479,Co(ReO4)2,0.0
mp-553938,KGd(WO4)2,3.1476
mp-554071,Na8Nb2Cu4S21,1.1542
mp-554181,VPO5,1.9627999999999992
mp-554286,La6Ti2S8O5,1.3379
mp-554354,Mn(RhO2)2,0.9959000000000001
mp-554493,BiAsPbO5,2.4703
mp-554740,CdGe(BiO3)2,1.9183
mp-554886,Ba3Nb2(P2O9)2,3.153699999999999
mp-554973,TlCuF3,0.0
mp-555132,BiXeF9,1.9935
mp-555319,Rb3Ti3(PO4)5,2.5341
mp-555565,Ag5(PbO3)2,0.0
mp-556158,RbMn6As7O24,0.0
mp-556161,ZnS,1.440999999999999
mp-556287,NaBi2Sb3O11,2.4062
mp-556888,KSbF6,4.933499999999999
mp-557023,NbVF6,0.0
mp-557711,K3Nb3(BO6)2,2.3810000000000002