material_id,pretty_formula,band_gap
mp-8606,BaSbPt,0.0
mp-861626,Tc3Rh,0.0
mp-861735,AcMgTl2,0.0
mp-862446,TaAlRu2,0.033599999999999006
mp-862702,Sc2AgHg,0.0
mp-862797,RbAcTe2,1.181099999999999
mp-862862,Pa3Sb,0.0
mp-863742,Pm2RuRh,0.0
mp-864606,AcCuO3,0.0
mp-864617,NdI3,2.0193
mp-864618,BaHg2Pb,0.0
mp-864669,NbGeRu2,0.0
mp-864676,Yb2AlGe3,0.0
mp-864783,Yb2SbAu,0.1116
mp-864902,MgTlRh2,0.0
mp-865,CaB6,0.18350000000000002
mp-865092,MgGaNi2,0.0
mp-865219,Dy2IrRu,0.0
mp-865727,YReB4,0.0
mp-865801,LuPaTc2,0.0
mp-865804,TaZnRh2,0.0
mp-865830,Lu2CuOs,0.0
mp-865846,LuHfRu2,0.0
mp-866059,GdMgRh2,0.0
mp-866163,YInRh2,0.0
mp-866170,TiInRh2,0.0
mp-866174,ThSnAu2,0.0
mp-866228,CaDyHg2,0.0
mp-867901,ScTaTc2,0.0
mp-867928,ScGaRh2,0.0
mp-867958,TaInRu2,0.0
mp-8732,Ta2Se,0.0
mp-9130,CrSbS3,0.0
mp-9263,KErTe2,1.3841
mp-9363,RbNdS2,2.353399999999999
mp-9367,RbErS2,2.3837
mp-971788,VRu3,0.0
mp-971868,TmMgAg2,0.0
mp-973451,Nd2BiO2,0.0
mp-975044,Li(SiRh)2,0.0
mp-975933,NdHoIn2,0.0
mp-977353,Ta2ReMo,0.0
mp-977426,NbCo3,0.0
mp-978975,TbYTl2,0.0
mp-979965,YbSmPt2,0.0
mp-983428,PmDyIn2,0.0
mp-984605,Ca3SnH2,0.11179999999999901
mp-9886,La(PRu)2,0.0
mp-989540,Sr6Sn2NO,0.0
mp-989542,Ba6Tl2NCl,0.0
mp-998759,TlCdF3,3.700199999999999
mp-999136,TaInSe2,0.0
mp-999305,PrRh,0.0
mvc-10115,CaMn2P2O9,0.0
mvc-6030,Ca3Co3(AsO4)4,2.467
mvc-6622,Mg(CuO2)2,0.381399999999999
mp-1001614,LuCoC2,0.0
mp-1003764,K3Mn4O8,0.409199999999999
mp-10076,Hf3(NiGe)4,0.0
mp-1008624,YBiPd,0.0
mp-1018052,HoFeC2,0.0
mp-1018696,EuCdPb,0.0
mp-1019253,SmSe2,0.0
mp-1024968,PuB2Rh3,0.0
mp-1024991,ErCu2,0.0
mp-1025249,Sm2Re2Si2C,0.0
mp-1025433,HoGa2Ni,0.0
mp-1025448,YPt,0.0
mp-10284,YSi3Ni,0.0
mp-10529,Er2AlSi2,0.0
mp-10564,SrN2,0.0
mp-1070099,Ca(GaAs)2,0.6877
mp-1070151,K(FeS)2,0.0
mp-1070917,Nd2Co2SiC,0.0
mp-1071051,NdMgCu4,0.0
mp-1077534,PaPt5,0.0
mp-1078240,Si6Ni3Au,0.0
mp-1078362,Ca2AlPt2,0.0
mp-1078430,ScCuGe,0.0
mp-1079467,YAu3,0.0
mp-1080523,Ho3Ni2,0.0
mp-1092318,TmInAu,0.0
mp-1095127,USbRu,0.0
mp-1095320,LuBPt2,0.0
mp-1095656,LuAsSe,0.157399999999999
mp-1095669,HfTc2,0.0
mp-10983,ErVB4,0.0
mp-1101828,TbAsS,0.40599999999999903
mp-1102184,ScGaPt,0.0
mp-1102327,LuGaPt,0.0
mp-1103095,TbGaCo,0.0
mp-1103382,DyAlPd,0.0
mp-1103936,Er(MnSn)6,0.0
mp-1104019,Y3Pd4,0.0
mp-1104609,Ba(Cd2Pt)2,0.0
mp-1104652,Nd5Co2,0.0
mp-1105666,Rh2Se3,0.0
mp-1106406,Ce2SnS5,0.0
mp-1113010,Cs2LiNdI6,2.9795
mp-1114343,Rb3CoF6,2.9405
mp-1114663,Rb2ScTlCl6,3.4899
mp-11192,TaSi2,0.0
mp-1127,SmPt2,0.0
mp-11467,NdHg,0.0
mp-11531,VNi2,0.0
mp-1173341,Pr2SbO2,0.0
mp-11750,Ti6Si2B,0.0
mp-1181839,Cs4Sr(SnSe3)3,1.6155
mp-1182773,Ba(GdTe2)2,0.7947000000000001
mp-1183040,ZrSe,0.0
mp-1183093,Ac2IrRh,0.0
mp-1184533,GdHoTl2,0.0
mp-1184790,GdErRu2,0.0
mp-1184838,HoLuIn2,0.0
mp-11852,NdCu2,0.0
mp-1185359,LiMg2Cd,0.0
mp-1185368,LiMgIn2,0.0
mp-1185383,Eu5Nb4O15,0.0
mp-1185505,LuMnRh2,0.0
mp-1185576,CsYbI3,3.8114
mp-1186372,Pa2BiTe,0.0
mp-1186583,PmEuPt2,0.0
mp-1186644,PmSmIr2,0.0
mp-1186707,PmYIn2,0.0
mp-1187263,Tb2PdRu,0.0
mp-1187563,YbDyPt2,0.0
mp-1187702,VW3,0.0
mp-1187773,VH6(OF)3,0.0
mp-1187791,SmMg149,0.21370000000000003
mp-1188367,ErZn3,0.0
mp-1188512,Ga7Pt3,0.0
mp-1188589,Er(Co2B)6,0.0
mp-1189644,Pr(LuS2)3,1.019299999999999
mp-1189984,YMoC2,0.0
mp-1190025,Ba2US6,0.0
mp-1190195,LiIn(WO4)2,3.389199999999999
mp-1190659,Eu2(AlAu2)3,0.0
mp-1190738,Dy2Fe17C3,0.0
mp-1190894,Gd3ReB7,0.0
mp-1190915,TcCl3,0.6751
mp-1191368,NdNiB4,0.0
mp-1191455,Ho3MnB7,0.0
mp-1191527,CsGa2Au3,0.0
mp-1191614,Dy3B7W,0.0
mp-1192129,Tl3V5O14,2.145
mp-1192151,Rb2Zn5As4,0.286699999999999
mp-1192283,Dy3AlNi8,0.0
mp-1193176,Lu6Mn23,0.0
mp-1193531,Ta2Al,0.0
mp-1193657,Ti4Co4Si7,0.0
mp-1193757,Ba(SmSe2)2,1.4509
mp-1193889,HoBe13,0.0
mp-1193938,Ce(Al5Fe)2,0.0
mp-1194311,Sc3(Ni10B3)2,0.0
mp-1194749,Cs2ZnGe3Se8,1.4028
mp-1195664,Sr2P7Br,2.1330999999999998
mp-1195682,Th(As4O9)2,3.612299999999999
mp-11957,CaSn2Ir,0.0
mp-1196286,Rb3Ni2(NO3)7,2.9288
mp-1196992,La3Sn13Ru4,0.0
mp-1197374,Zr2S,0.0
mp-1197793,Tm6Al43Cr4,0.0
mp-1198411,U11(PbO12)3,1.6609999999999991
mp-1198465,Er2B6Ru,0.0
mp-1198585,Sm6Fe13Pb,0.0
mp-1198628,Na3RuO4,0.0
mp-1198999,Ho5Pt4,0.0
mp-11990,Pr2CdNi2,0.0
mp-1199430,TiFeGe2,0.00019999999999900002
mp-1199517,Pr7Si5Ni2,0.0
mp-1199798,CsReS2,1.2666
mp-1199846,AgSb3IF24,0.32429999999999903
mp-1199980,Eu3(MgSi)5,0.0
mp-1200170,Ba5Cr3O13,0.7611000000000001
mp-1200233,DyAgS2,1.6807
mp-1200721,Np2SO9,0.14929999999999902
mp-1200868,La4P9Rh8,0.0
mp-1200900,Ho(NO3)3,3.2866
mp-12010,BaSeO4,3.7215
mp-1201760,Er5Ir3,0.0
mp-1202304,Gd2B6Os,0.0
mp-1202389,LaVI5O16,2.3631
mp-1202591,Mn2AsHO5,0.0
mp-1202671,Pr7C3Br10,0.103399999999999
mp-1203051,K5Li2EuF10,0.14149999999999902
mp-1203387,Ba2GaSbSe5,1.806699999999999
mp-1204281,HfGe2Ru,0.0
mp-1204902,Nd5Pb4,0.0
mp-1205128,Ho5Zr3(Ni4As3)4,0.0
mp-1205336,BaMnO3,1.8948
mp-1205383,Nd2GeO5,3.8858
mp-1205526,TbMn2SiC,0.0
mp-1205534,Ce2Si2Sn,0.0
mp-1205549,Ba2GdTaO6,3.307599999999999
mp-1205654,CeSiRu2C,0.0
mp-1205892,Zr6CoSb2,0.0
mp-1206107,Ho2CdPd2,0.0
mp-1206497,Cs3CoF6,2.939
mp-1206800,ErCuSn,0.0
mp-1206826,La4SiI5,0.0
mp-1207093,LuRu3C,0.0
mp-1207185,LuBiPd,0.0
mp-1207518,YbRhO3,0.0
mp-1207684,TmMn2SiC,0.0
mp-1207727,Y5(SiSb)2,0.0
mp-1207835,Tm3SbO7,2.7912
mp-1207941,Y6InCo2,0.0
mp-1208045,TlFe(SO4)2,2.1001
mp-1208073,Tm2(Ga3Ir)3,0.0
mp-1208348,Ta5Ga3B,0.0
mp-1208424,TeBr4,2.5242
mp-1208581,Tb2Hf3Si4,0.0
mp-1208764,U2Si7Ru12,0.0
mp-1208983,Sc2GaB2Ir5,0.0
mp-1209078,RbWCl6,0.0
mp-1209298,RbP15,1.5054
mp-1209548,Rb(RuO2)4,0.0
mp-1209671,Pu3Se4,0.0
mp-1209798,Pr(Al5Fe)2,0.0
mp-12098,K(PRh)2,0.0
mp-1209978,Nb4VSe8,0.0
mp-1210079,NaGdCu2F8,1.0352
mp-1210189,Nd2(Ga3Ru)3,0.0
mp-1210200,Nb3Tl2Cl9,1.0221
mp-1210285,Na8Zr6BBr20,0.0
mp-1210997,LiTm(WO4)2,3.7714
mp-1211140,Li8Ag5,0.0
mp-1211804,K6Na14Tl18Cd,0.001999999999999
mp-1212059,Li3Tm(NO3)6,3.0238
mp-1212488,GdCrGeO5,2.4536000000000002
mp-1212599,K2BaNb2S11,0.9839000000000001
mp-1213274,Dy6Ta4Al43,0.025
mp-1213293,CsTb(MoO4)2,3.6388
mp-1214002,Ce3(P3Pd10)2,0.0
mp-1214026,Ca3La2Sb3O14,0.0
mp-1216328,UAl7Fe5,0.0
mp-1216552,USi2RuRh,0.0
mp-1216946,TiMnCr,0.0
mp-1217107,Ti4CN3,0.0
mp-12185,LiCu(PO3)3,0.6672
mp-1218708,Sr2PtAu,0.0
mp-1218890,Sr(B2Pt3)2,0.0
mp-1219118,Sr18Co14O45,0.014699999999999
mp-1219177,Sm2C,0.0
mp-1219668,PuUN2,0.0
mp-1220721,Nd14Ag51,0.0
mp-1220934,Nb3Os2,0.0
mp-1221197,Na4Eu(GeSe3)2,0.338
mp-1221692,MnCuSe4,0.0
mp-1222339,Lu2AlCo3,0.0
mp-1222490,Li4(CdSb)5,0.0
mp-1222536,Li3Mg5Bi3Pb,0.0
mp-1223811,K2(TaSe2)3,0.0
mp-1223905,K2Ti(TeO4)3,1.520099999999999
mp-1224229,K10Zn4Sn4S17,2.4829
mp-1225070,Er2CuSi3,0.0
mp-1225089,GaFe2Co4Si,0.0
mp-1225444,ErUTe4,0.0
mp-1225690,Er2Fe6Co6P7,0.0
mp-1225819,Er5Co19P12,0.0
mp-1227002,CeTiNbO6,0.0
mp-1227300,Ca2GaSi,0.0
mp-1227314,CaGd2(GeO3)4,3.1538
mp-1228898,Ba5Eu5(Fe5O13)2,0.038499999999999
mp-1229313,CaEu2(GeO3)4,0.0
mp-1236,NdAg,0.0
mp-1239,Sb3Ir,0.526899999999999
mp-13271,ErAsPd,0.023000000000000003
mp-1331,YCd2,0.0
mp-13379,DyZnRh,0.0
mp-13495,ZrPd,0.0
mp-13534,LaZnNi,0.0
mp-13572,ScSiPt2,0.0
mp-13749,K9Ni2O7,2.1161
mp-1410,DyN,0.21149999999999902
mp-14385,Ba3Tm(BO3)3,3.843599999999999
mp-15065,Cu(IrS2)2,0.0
mp-15126,Cs2MnSi5O12,3.291799999999999
mp-15728,MgAg(PO3)3,3.3422
mp-15778,MgNiSb,0.0
mp-15843,Ge9Pd25,0.0
mp-16061,Sr6Sb6S17,1.7427000000000001
mp-1632,NdB4,0.0
mp-16838,EuNi5As3,0.0
mp-16928,Ba6Lu2(WO6)3,2.9965
mp-1696,CdPd,0.0
mp-17264,BaVAsO6,2.6837
mp-17642,RbUCrO6,1.653299999999999
mp-1775,SnAu,0.0
mp-17811,Cs3SbSe4,1.7195
mp-17813,ZrAu4,0.0
mp-18051,La2TiO5,3.292499999999999
mp-18139,Na5SiAs3,0.740899999999999
mp-18482,Yb4Al23Ni6,0.0
mp-18505,CsHo3Te5,0.843399999999999
mp-18642,Ca(YS2)2,1.5361
mp-18744,Sr2ErMoO6,1.2818
mp-191,YRh,0.0
mp-19142,Mn2V2O7,1.2685
mp-19306,Fe3O4,9.999999999976696e-05
mp-19336,Nd2MnCoO6,0.0
mp-1981,Ba2Sn,0.015500000000000002
mp-19876,InNi,0.0
mp-20131,YIn3,0.0
mp-20219,CsUCuTe3,0.0
mp-20268,TiGePd,0.0
mp-20732,EuAsPt,0.0
mp-20905,OsS2,0.0
mp-21002,LaIn2Rh,0.0
mp-21035,Sc3PbC,0.0
mp-21069,YSiRu,0.0
mp-21119,CeNiSn,0.0035
mp-21176,KCeGeSe4,0.0
mp-21359,SbRh2,0.0
mp-21473,Gd(NiP)2,0.0
mp-21580,EuSnF7,0.0
mp-21774,Ca2Sn5Pt3,0.0
mp-21798,NaMoPO6,2.7645
mp-2180,HfSb2,0.0
mp-21836,K2In12Se19,0.8491000000000001
mp-21860,Ta2VO6,0.0
mp-22184,Ba2SmNbO6,2.8562000000000003
mp-22470,La(FeAs3)4,0.0
mp-22600,Sc3P2,0.0
mp-2267,HoB2,0.0
mp-22670,HoGeRh,0.0
mp-22707,EuAgSb,0.0
mp-22724,CeZrF7,0.0713
mp-22755,TbGeIr,0.0
mp-22790,VGaCo2,0.0
mp-22816,TbGeRh,0.0
mp-23039,Er6MnBi2,0.0
mp-2322,YAl2,0.0
mp-23317,AsBr3,3.2023
mp-23575,AsSe3(ClF2)3,1.9584000000000001
mp-24092,GdH2,0.0
mp-24337,MgH2Cl2O,5.3767
mp-24383,Mg(H2N)2,3.0141
mp-2465,DyPt3,0.0
mp-2640,TbAs,0.0
mp-26728,VP2O7,1.3261999999999992
mp-27229,Sb6S2O15,3.247199999999999
mp-27384,AgIO3,2.4582
mp-27544,Cs3Bi2Br9,2.598799999999999
mp-27771,Nb3Br8,0.059000000000000004
mp-27845,CaSe2O5,3.4788
mp-28153,Ca(AuF6)2,1.6254
mp-28167,Th6CoBr15,0.6793
mp-28320,Pt3I8,0.8003999999999991
mp-28344,Zr6CI14,0.7963999999999991
mp-28382,K4ZnO3,1.6956
mp-28448,DyCl3,3.8996
mp-2848,Pu5Ir3,0.0
mp-28724,Gd2CI,0.0
mp-28775,MoAs2O7,2.5302
mp-28858,Na2HgS2,2.207799999999999
mp-28929,DySI,2.7812
mp-29056,La3InC,0.0
mp-29402,KGaI4,2.6203000000000003
mp-29502,Al2Te3,1.8377999999999992
mp-29634,V4P2C,0.0
mp-29941,Sc2C,0.0
mp-29955,Hg3(SeI)2,1.1701
mp-30019,ZrCu2Te3,0.0
mp-30103,AuF5,0.789
mp-30105,Ba2B4Se13,1.333
mp-30111,BaLaI4,0.1953
mp-30758,Li2MgPb,0.0
mp-30800,NdZn2,0.0
mp-30864,Y2Sn5Rh3,0.0
mp-31123,Tm2MoO6,2.1067
mp-31238,Ba3(SbO3)2,2.9332000000000003
mp-31385,Er5Sn3,0.0
mp-3284,CeSi2Pt,0.0
mp-3618,Sc2FeSi2,0.0
mp-3764,Te3P2O11,3.3954
mp-3776,Er2Mo2C3,0.0
mp-4316,Sr(NiAs)2,0.0
mp-4466,Tb(SiNi)2,0.0
mp-49,Os,0.0
mp-4992,ScCrC2,0.0
mp-504678,CoSeO4,2.0441
mp-504985,Ba(GaPt)2,0.0
mp-505147,Cs6Fe2O5,0.0
mp-5111,YbCuGe,0.0
mp-526,CaTl3,0.0
mp-5280,In2Ge2O7,1.8014000000000001
mp-540577,KZr2(PO4)3,4.284499999999999
mp-540688,SrIn2O4,2.534
mp-541075,Rb2Mo3O10,3.3956
mp-541299,Zr4Cd(PO4)6,3.7557
mp-541569,Sr2Li3TaN4,2.158499999999999
mp-541895,Na2(ReS2)3,1.437999999999999
mp-541951,Zr3P3Pd4,0.0
mp-542437,Gd2Zn17,0.0
mp-542671,K2Mo(I2O7)2,3.0316
mp-542931,Bi2B8O15,4.3824
mp-553975,K3Na2InO4,1.908
mp-554129,Br3N(O2F5)2,1.4972
mp-554211,TmMnO3,0.0
mp-555068,Sr9LuV7O28,3.6782
mp-555122,Rb2Pd(NO3)4,1.8948
mp-555589,Fe2(Se2O5)3,2.6028000000000002
mp-556168,Na7Al3O8,2.7999
mp-556291,Ba3Sn2S7,2.191699999999999
mp-556627,K4GeS4,2.7133000000000003
mp-557059,RbSnS4,1.326499999999999
mp-557295,V(SeO3)2,1.9892
mp-557441,KAu(IO3)4,2.125899999999999
mp-557505,KUP3O11,2.338899999999999
mp-558137,AlBPbO4,2.7567
mp-558815,Rb2LiVS4,1.5836000000000001
mp-559243,Nd2Ta2Cl2O7,3.09
mp-559503,KVCdO4,3.0655
mp-559558,Cu3P8(S2Cl)3,1.7894
mp-561023,ThCd(MoO4)3,3.5183
mp-561472,Hg2PO3F,1.8889
mp-561999,CsAlAgF6,0.20819999999999902
mp-562779,ErCoO3,1.4581
mp-562977,RbNbS2O9,2.7775
mp-5671,Sr(CoP)2,0.0
mp-567586,Nd17Au36,0.0
mp-567864,TlBi(PSe3)2,1.411699999999999
mp-568058,YbIn2,0.0
mp-568397,CuMo3Cl7,1.92
mp-568592,ZrNCl,1.755599999999999
mp-568753,TcBr3,0.083999999999999
mp-569012,Cs(AsRh)2,0.0
mp-569465,Cs2Nb6PbCl18,1.089799999999999
mp-569804,Er5Zr3(Ni4As3)4,0.0
mp-570355,PbCl4,2.151799999999999
mp-570390,Ba5Al2Ge7,0.0
mp-570486,NbP2Se2Cl5,1.3235999999999999
mp-570683,PrInAg2,0.0
mp-571428,MgNi3B2,0.0
mp-571470,Na2SnSe3,0.9568000000000001
mp-580154,GdMgAu,0.0
mp-583193,Cs3PSe4,1.8309000000000002
mp-600186,Cs2MnBr4,2.5604
mp-6130,KMn4(PO4)3,2.8504
mp-621592,YPbAu,0.0
mp-628618,Ba5Os3NO18,0.6046
mp-628768,In4SnSe4,0.8023
mp-638051,LuNiGe2,0.0
mp-638104,Nb2Tl4Se11,0.9648999999999991
mp-638252,Cs2Cu3(P2O7)2,0.796
mp-6394,RbTiAsO5,3.056
mp-646392,Dy3Co,0.0
mp-647347,Np2InPt2,0.0
mp-650026,PrIn2Cl5,2.777
mp-669496,PtI4,0.692399999999999
mp-672287,Li13Si4,0.0
mp-677272,La2EuS4,0.35090000000000005
mp-680189,Y21B7(C7I9)2,0.0
mp-680410,K3Nb2S11,1.4261
mp-683902,Rb3Nb2AsSe11,1.178899999999999
mp-684922,Np2Se3,0.0
mp-687090,Hf(MoO4)2,3.2802
mp-705435,Fe2(MoO4)3,2.4052
mp-7364,Ca(SiAu)2,0.0
mp-7429,Ca(ZnSb)2,0.0
mp-7432,Sr(CdSb)2,0.0
mp-753926,LiVCoO4,1.5981
mp-755023,Mg2Mn3O8,1.4478
mp-755713,Tb2SbO2,0.0
mp-756241,PrBiO4,0.7491999999999991
mp-757192,SnP2O7,3.9374000000000002
mp-768211,Cs3HoO3,2.2943
mp-771712,Li2Fe3SbO8,1.8901
mp-8458,BaAsPt,0.0
mp-849325,SbH4NCl6,2.0339
mp-861984,Er2IrPd,0.0
mp-861993,Ho2TlAg,0.0
mp-862261,Sc2ZnRu,0.0
mp-862379,Sc2TcAg,0.0
mp-862759,PrMgZn2,0.0
mp-862765,LiGd2Ir,0.0
mp-862899,PmCd3,0.0
mp-862978,Er2AgRu,0.0
mp-864625,Ho2IrRh,0.0
mp-864809,AcZn3,0.0
mp-865047,Mg2AlB2Ir5,0.0
mp-865165,HfScCo2,0.0
mp-865173,CaAcHg2,0.0
mp-865421,UGaTc2,0.0
mp-865437,Lu2ZnRu,0.0
mp-865482,VTc2Ge,0.0
mp-865569,Ti2MnIr,0.0
mp-865709,LiPrTl2,0.0
mp-865711,Li2TlAu,0.0
mp-865749,YbErRh2,0.0
mp-865869,Be2CuPt,0.0
mp-865884,LuInRh2,0.0
mp-865923,Yb2Ni12As7,0.0
mp-865930,TiZnCu2,0.0
mp-865955,CaNdHg2,0.0
mp-866074,NdMgAg2,0.0
mp-866152,TiBeCo2,0.0
mp-866290,DySnRh2,0.0
mp-867116,BeGaIr2,0.0
mp-867131,SmMgCd2,0.0
mp-867232,TbAl3,0.0
mp-867271,Be2CoNi,0.0
mp-867281,Tc3Pt,0.0
mp-867770,BaHg3,0.0
mp-867812,LiAlNi2,0.0
mp-899,InRh,0.0
mp-9178,CdSe2O5,3.061299999999999
mp-9251,TlTe3Pt2,0.11000000000000001
mp-972071,V3Mo,0.0
mp-972528,SmYAg2,0.0
mp-973529,LuB4Os,0.0
mp-973653,Lu2ZnAg,0.0
mp-974253,HoErZn2,0.0
mp-976187,Pr(Al2Fe)4,0.0
mp-977324,Ga3(Ni10B3)2,0.0
mp-977559,Dy2MgGe2,0.0
mp-977582,ZrZnRh2,0.0
mp-978569,Sm(BRh)4,0.0
mp-980206,TmScRu2,0.0
mp-989529,KRb2InCl6,3.6461
mp-999138,SmTlS2,1.776699999999999
mp-999502,MoPt,0.0
mvc-14047,MnS2,0.0
mvc-8002,Zn2Co3O8,0.8429000000000001
mp-10004,Mo3P,0.0
mp-10068,Ce2MnN3,0.0
mp-1008376,CeH3,0.0
mp-1017558,Er3AlN,0.0
mp-1018665,CeSe2,0.0
mp-1018726,HfVGe,0.0
mp-1018823,NiPRh,0.0
mp-1025521,CeSi2Ru,0.0
mp-1029640,Ba3OsN3,0.0
mp-1030752,Sr8Co3N8,0.0
mp-1038976,CeMg5,0.0
mp-1042,HfSi,0.0
mp-10470,NbSiRh,0.0
mp-1068775,NdSi3Os,0.0
mp-1069041,NdSi3Ru,0.0
mp-1069882,LaSi3Os,0.0
mp-1077088,PrCdNi4,0.0
mp-1077244,GdZnGa,0.0
mp-1077329,GdPPd,0.0
mp-1077374,ThSiS,0.0
mp-1078203,CsTlF3,2.339
mp-1078684,ErCdGa,0.0
mp-1078729,Zr6CuBi2,0.0
mp-1078811,Nb2GeC,0.0
mp-1079130,Ba2ZnBi2,0.190199999999999
mp-1079180,HoPt,0.0
mp-1079402,CeSi2Ir,0.0
mp-1079921,HoNiGe3,0.0
mp-1079938,TlPd3,0.0
mp-1080643,LaFeSi2,0.0
mp-1080711,N2,0.0
mp-10923,Ca2Co12P7,0.0
mp-1095099,LiPtF6,0.0
mp-1095449,HfGeMo,0.0
mp-1095591,Tm3(CuSn)4,0.0
mp-1102195,TiSiPt,0.0
mp-1102217,NdRu2,0.0
mp-1103021,PrPb2,0.0
mp-1103614,Ce2In8Pt,0.0
mp-1104047,Al4Tc,0.0
mp-1104497,La2Ga10Ni,0.0
mp-1105548,Pr5Bi3,0.0
mp-1105652,Yb(CoP3)4,0.0
mp-1105726,Ce(Sb3Os)4,0.010900000000000002
mp-11101,LuInRh,0.0
mp-1112651,Cs3InBr6,2.6769
mp-11204,Tm6FeSb2,0.0
mp-1147618,K6ZnS4,1.9614
mp-11491,LuNi5,0.0
mp-11651,Yb3SnO,0.476599999999999
mp-1173369,Pr2EuSe4,0.5004000000000001
mp-1173377,NdPaO4,2.7813
mp-11754,Sc6Te2Os,0.0
mp-1179711,RbSn2(PO4)3,3.344999999999999
mp-1180738,LaBr3O7,2.053099999999999
mp-1183185,AcYbAu2,0.0
mp-1184242,ErTmRu2,0.0
mp-1184387,Gd2RuRh,0.0
mp-1184518,GdDyIr2,0.0
mp-1184822,HoZrRu2,0.0
mp-1184905,K,0.0
mp-1184958,Li2TlIn,0.0
mp-1186207,Nb2ReRu,0.0
mp-1186659,PmTmTl2,0.0
mp-1187335,TbDyRh2,0.0
mp-1187613,YbDyCd2,0.0
mp-1187887,ThIn,0.0
mp-1188283,V8N,0.0
mp-1188427,Dy2Te3,0.7939
mp-1188432,Dy4Ga12Pd,0.0
mp-1189307,Nd(HoS2)3,1.0278
mp-1189476,NdMnO3,0.0
mp-1189603,HoPd3S4,0.0
mp-1189981,Zr5ZnSn3,0.0
mp-1190399,Na2Zn(GeS3)2,2.5041
mp-1190784,TaTe4Os,0.0
mp-1190813,Cs2U(PtSe2)3,0.0
mp-1191108,SmRh3,0.0
mp-1191245,LuH3,0.10509999999999901
mp-1191649,CaSi7Ir3,0.0
mp-1191981,Ta7(B4Ru3)2,0.0
mp-1192259,Nd8Ga3Co,0.0
mp-1192365,Dy3Te3N,1.1148
mp-1192476,CsGa9Au5,0.0
mp-1192824,KNb2Cl11,2.1275
mp-1193199,Hf9Re4P,0.0
mp-1193332,Rb5(FeO2)3,0.0
mp-1193423,Nb4Si7Ni4,0.0
mp-1193498,LiMgAlH6,3.3652
mp-1193960,Eu(DyS2)2,0.160199999999999
mp-1194261,Sc6Al16Pd7,0.0
mp-1194552,Sm10As8Au3O10,0.0
mp-1195277,Na2Mo2Se2O11,2.7771999999999992
mp-1195831,Li(HoGe)4,0.0
mp-1196188,Pr5Zr3(Ni4As3)4,0.0
mp-1196998,K3Ge17,0.0
mp-1197355,Er2(Ni2B)5,0.0
mp-1197430,Cs2NaAs7,1.4374
mp-1198415,Cs4(BSe)9,2.33
mp-1198923,Cd2AsHO5,1.5943
mp-1199992,Nb3Te4ClO15,2.3912
mp-1200086,Rb3P3H5N,2.1364
mp-1200410,Er5P12Ru19,0.0
mp-1200554,KTa3(TeO6)2,2.9452
mp-1200738,Pr5(Sn5Rh2)2,0.0
mp-1200767,Sc3Ga5,0.0
mp-1202194,Cs2Hg(BSe)9,1.870699999999999
mp-1202258,Nd2Nb2S7O30,0.1134
mp-1202283,U6Al43Mo4,0.0
mp-1202575,Ho2Nb3Ge4,0.0
mp-1202662,Sc2Si4W3,0.0
mp-1202765,Nd(Cd10Ni)2,0.0
mp-1202783,Pr4GaSbS9,2.1638
mp-1205494,Nd2MgSi2,0.0
mp-1205587,ErPRu2C,0.0
mp-1205604,KVCl3,0.34129999999999905
mp-1205615,La2Co2I,0.0
mp-1205672,KTl2CrF6,3.7949
mp-1205951,TbMgIn,0.0
mp-1206041,Cs3VF6,0.0
mp-1206237,Ba2AgIO6,0.1267
mp-1206772,ThBRh3,0.0
mp-1206905,Sm2MgCu2,0.0
mp-1206953,ErBiPd,0.0
mp-1206964,Zr6NiSb2,0.0
mp-1207186,DyHSe,1.537599999999999
mp-1207450,Zn9Fe4,0.0
mp-1207588,Yb5(Si5Ir2)2,0.0
mp-1207784,Y5(CoTe)2,0.0
mp-1207841,V5Si3N,0.0
mp-1207905,Y2Ge2Ru,0.0
mp-1207909,UTaN2,0.0
mp-1208005,Tm2(Al3Rh)3,0.0
mp-1208223,Ti5S8,0.0
mp-1208239,Ti5CuSn3,0.0
mp-1208393,TbTl(MoO4)2,3.2799
mp-1208625,SrLiVF6,2.6264000000000003
mp-1209099,RbTb(MoO4)2,3.1916
mp-1209288,PrTeAs,0.11559999999999901
mp-1209398,Rb3LuV2O8,3.3815
mp-1209553,PuMoC2,0.0
mp-1209902,Nd3(Si3Pd10)2,0.0
mp-1209971,Pr12(OsC3)5,0.0
mp-1210768,Lu4CdPd,0.0
mp-1210956,Lu2(Ga3Rh)3,0.0
mp-1210971,Lu6Nb4Al43,0.0
mp-1211477,La3AsBr3,0.0
mp-1211534,KPr(PSe3)2,2.0113
mp-1211580,KGd(MoO4)2,3.4399
mp-1211636,Sm15(Ni4P3)7,0.0
mp-1211715,K4CrO4,0.0
mp-1211803,K3Au3Br8,0.823099999999999
mp-1212070,La23Cd4Rh7,0.0
mp-1212122,InCl2,3.024
mp-1212252,HoIn2Pd,0.0
mp-1212420,Ho2(Ga3Ir)3,0.0
mp-1212450,Hf6Be15Ni8,0.0
mp-1212698,EuZrF6,0.589499999999999
mp-1212708,Gd2NiPtO6,0.0
mp-1213017,Gd3Sc2Al3O12,3.2464
mp-1213222,CuAg2(PO3)4,0.3875
mp-1213425,Dy4InIr,0.0
mp-1213572,CsW3Cl7,2.9615
mp-1213865,Ce3Al11,0.0
mp-1213898,Ce3PI3,0.0
mp-1213987,CaCdP2O7,3.888
mp-1214159,Ca3Ga3(SnO6)2,0.0
mp-1214448,Ba8Sc3(Pt2O9)2,0.0
mp-1214959,Al(Ag3Se2)3,0.0
mp-1215353,Zr4GeSb7,0.0
mp-1215826,Zr2Sb2Pb4O13,1.537599999999999
mp-1216017,YAl7Cu5,0.0
mp-1216481,V3Cr3Si2,0.0
mp-1216654,U2NiSb4,0.0
mp-1217281,Th2AsNO,0.8689999999999991
mp-1217453,TePb3(BrO2)2,1.960099999999999
mp-1217627,Tb4CuPt3,0.0
mp-1217893,TaNbAl6,0.0
mp-1217895,TaMo,0.0
mp-1217921,TaGaNi6,0.0
mp-1217996,TaCu3Se3S,1.796499999999999
mp-1218349,SrAg3Pd2,0.0
mp-1218681,Sr4Mn2CuO9,0.7292000000000001
mp-1218700,Sr6As19Rh30,0.0
mp-1219181,Sm2Si3Pd,0.0
mp-1219283,SrCd6,0.0
mp-1219665,PuPaO4,0.0
mp-1219687,PrAlNi4,0.0
mp-1220023,OsRu,0.0
mp-1220161,NdAlSi,0.0
mp-1220718,Nd9Ga5S21,1.6179000000000001
mp-1220743,Nb(GaNi4)3,0.0
mp-1220774,Na5SrTaP4,1.3882
mp-1221016,NaV3(PbO3)4,2.8719
mp-1221683,Mn6PtRh,0.0
mp-1222070,MgTi4(PO4)6,2.4164
mp-1222477,LiVZnO4,3.3518
mp-1222580,Li5Cr3(PO4)4,2.1685
mp-1222608,Li2SnPd,0.0
mp-1223533,La4Zr8Ni15As16,0.0
mp-1223576,LaCe(Mo3S4)4,0.0
mp-1224021,Ho3Er3MnBi2,0.0
mp-1224082,K(Ti3Se4)4,0.0
mp-1225149,Gd5Si2BO13,2.4873
mp-1225196,EuZnGa,0.0
mp-1226128,Cr8Cd3CuS16,0.0
mp-1226534,CeNdN2,0.0
mp-1226639,CeDyFe4,0.0
mp-1226947,Ce4Bi8Pd3,0.0
mp-1227579,Ca20(CdGa3)3,0.0
mp-1228397,Ba3UIn2O9,1.562
mp-1228746,Ca43Al16Pb13,0.23899999999999902
mp-1229,CuF2,0.0
mp-1229012,AgPd,0.0
mp-1229182,Ag9Ge2NO11,0.070199999999999
mp-1238795,Na(CrS2)2,0.0
mp-1244526,TiP3WO12,2.1916
mp-1245798,LiFeN,0.0
mp-12531,Sn4As3,0.0
mp-12558,LiMgAs,0.0
mp-12781,ScAl2Ni,0.0
mp-12838,Tm3FeSi3,0.0
mp-1283831,Sr2TaCoO6,0.8935000000000001
mp-1296711,LaCoO3,0.27930000000000005
mp-13263,Ce2Mo2C3,0.0
mp-13378,TbZnRh,0.0
mp-13536,TbZnNi,0.0
mp-1361,IrSe2,0.0669
mp-1399,AlAu,0.0
mp-14125,Ho2(Ga3Co)3,0.0
mp-1435,SrZn5,0.0
mp-1460,RbGa7,0.0
mp-14858,Rb4Tc6S13,0.9691999999999991
mp-14999,BaFeF5,3.7114000000000003
mp-15179,Pr2S3,0.7775000000000001
mp-15227,NdPd3S4,0.0
mp-1545,Nb3Rh,0.0
mp-15575,Ho3Ga5O12,3.326099999999999
mp-15614,Cu(RhSe2)2,0.0
mp-1567,ThNi5,0.0
mp-1603,TmGa3,0.0
mp-16140,Na3TiP8O23,0.0
mp-16189,Tm4Zn5Ge6,0.0
mp-16237,La(SiAg)2,0.0
mp-16263,CaZnGe,0.0
mp-16483,BaAl9Fe2,0.0
mp-16508,Lu3Al2,0.0
mp-16543,Cs3Cu5O4,1.6405
mp-16751,ErCuPb,0.0
mp-170,HoCd,0.0
mp-17037,Rb2Ti(SiO3)3,3.141199999999999
mp-171,VNi3,0.0
mp-17298,SrTi4(PO4)6,2.7704
mp-17794,HoGe2Ir,0.0
mp-17815,Ba4Si20Au3,0.0
mp-17880,Al13Ru4,0.0
mp-17886,K2Al2Sb3,0.9992000000000001
mp-17966,KInP2O7,3.8447
mp-18138,K2WSe4,1.2241