material_id,pretty_formula,band_gap
mp-1220047,Pr2Si2PbSe8,1.8287
mp-1220204,NdCuNi4,0.0
mp-1221591,MnHg2Te3,0.0
mp-1222744,LaZnCuP2,0.24619999999999903
mp-1223347,KSbWO6,2.6981
mp-1224491,K4Sn21Hg2,0.194199999999999
mp-1225874,CsZnCoF6,1.6343
mp-1225978,La2(InSn)3,0.0
mp-1226173,CsNa5(FeO3)2,2.2614
mp-1226185,K6InAs3,0.4983
mp-1226644,CeAl2Cu3,0.0
mp-1226869,Ce4UO10,0.0
mp-1226984,La10Ga3Co7,0.0
mp-1226996,CdBi12(Cl7O6)2,1.1852
mp-1227243,CaNp(PO4)2,0.45429999999999904
mp-1228277,Ba3CaBi2O9,0.27190000000000003
mp-1228360,Ba2InCuO4,1.110799999999999
mp-1232409,Nb4SiTe4,0.1695
mp-12580,Li2CdSn,0.0
mp-12585,CrRh3,0.0
mp-12732,Dy3(CuSi)4,0.0
mp-12964,TbNi4B,0.0
mp-131,Zr,0.0
mp-134,Al,0.0
mp-13452,BePd2,0.0
mp-13520,Na2ZnGe,0.0
mp-13525,HoInIr,0.0
mp-1393,Sn4Au,0.0
mp-14209,LiYGe,0.0
mp-1501,Al3Pt5,0.0
mp-15559,KSb5S8,0.0
mp-15613,Cu(RhS2)2,0.0
mp-1629,Th2Au,0.0
mp-16319,Rb3Sb,0.0878
mp-16356,TiNiGe,0.0
mp-16431,Nd(FeP3)4,0.0
mp-1645,Al9Rh2,0.0
mp-16544,Mg4As6Ir7,0.0
mp-16560,KEr2CuSe4,1.0567
mp-16679,Sm2Mo4O15,2.5309
mp-17092,ScSnPd,0.0
mp-172,Nd5Ge4,0.0
mp-17334,Sc2Cr4Si5,0.0
mp-17684,La6Ni6P17,0.0
mp-17908,Ba2TiS4,2.0962
mp-17945,RbPSe6,1.854099999999999
mp-1912,ZnAg,0.0
mp-19153,Lu2Mn2O7,1.242499999999999
mp-19200,Tb2Mo2O7,0.0
mp-1936,TaAs,0.0
mp-20010,DyCuGe,0.0
mp-2048,TlTe,0.0
mp-20497,SrIn2Ir,0.0
mp-20540,YbSbPd,0.0
mp-2082,PIr2,0.0
mp-20841,Ba2CaIrO6,0.0
mp-20924,U(FeSi)2,0.0
mp-20932,NbNiP,0.0
mp-20976,Eu(BIr)2,0.0
mp-21048,CrP,0.0
mp-21220,CaIn4Rh,0.0
mp-21352,NaIn2Au,0.0
mp-21468,PuIn,0.0
mp-21477,RbIn4,0.0
mp-21486,Tm2In,0.0
mp-21548,Er(SiNi5)2,0.0
mp-21686,Ba4UCr2S9,0.0
mp-21695,Ce(Ni2B)6,0.0
mp-21879,Ba2CePtO6,1.5239
mp-21985,In3Cu7,0.0
mp-22072,YbF3,0.0
mp-22177,DyInAu,0.0
mp-22198,Nb2NiO6,3.0216
mp-22267,Y(MnGe)6,0.0
mp-22561,Pr2ReC2,0.0
mp-22924,NaBi,0.0
mp-22926,LaBi,0.0
mp-23626,RbLi2(IO3)3,3.8084
mp-23810,BaAsHO4,3.774
mp-2404,CaAl2,0.0
mp-24290,HS7N,2.8136
mp-2444,GaRh,0.0
mp-24547,ZnH2(SeO4)2,2.7465
mp-2459,YbIn,0.0
mp-2474,YAg,0.0
mp-2598,Ta5Sb4,0.0
mp-27250,CsTcO4,3.4198
mp-27330,La3(OsO5)2,0.0
mp-27445,As(IF2)3,1.3464
mp-27473,Sb2TeF14,3.9836
mp-27483,Li5TlO4,1.6600000000000001
mp-27570,CsFeCl4,1.369
mp-27640,Cd(IO3)2,3.2733
mp-27932,Li9Ge4,0.0
mp-2807,ScP,0.0
mp-28818,RbCr5Se8,0.039399999999999005
mp-28853,LaAuO3,1.8372000000000002
mp-29419,Hf(Te2Cl3)2,1.3127
mp-29654,B9H11,2.9118
mp-29684,La5Sb3Br,0.0
mp-29815,LaAs2,0.0
mp-29940,SbClF10,2.3509
mp-30333,Tb(NiB)2,0.0
mp-30367,Ca5Au2,0.0
mp-30424,Zn3Au,0.0
mp-30477,LiCaSn,0.0
mp-30494,ScCd3,0.0
mp-30754,LaTlPd,0.0
mp-30799,NdTlPd,0.0
mp-30977,B5H6Br,3.015
mp-31105,RbBi,0.379299999999999
mp-3239,Er(CoSi)2,0.0
mp-32688,Nd2Se3,1.4288999999999992
mp-32755,La2Te3,0.9995
mp-3400,Lu(MnGe)6,0.0
mp-3433,YMgNi4,0.0
mp-37014,GdPaO4,0.0
mp-37808,Sc(TiN)9,0.0
mp-388,ErPb3,0.0
mp-3952,BaY2O4,3.592799999999999
mp-4013,Nd(SiRu)2,0.0
mp-4157,Sr(NO3)2,3.7326
mp-4289,Er2Si3Rh,0.0
mp-504614,Sm3(GaNi3)2,0.0
mp-505448,NaHfCuSe3,0.3845
mp-505545,Lu2FeB6,0.0
mp-505603,Pb5SO8,2.4485
mp-5069,La(MnSi)2,0.0
mp-5170,NdCoSi2,0.0
mp-541084,Cs3V2Cl9,0.0
mp-541753,Cs2WBr6,0.0
mp-542028,Ti3Al2NiN,0.0
mp-542776,PuAl4,0.0
mp-542824,Ce3(AgSn)4,0.0
mp-553982,K4In2Si8O21,3.8266
mp-554111,Ti3Tl3(PO4)5,2.5328
mp-554416,Ta4FeS8,0.0
mp-554584,Rb3NaPbO4,1.6112000000000002
mp-554773,La3BWO9,3.8047999999999993
mp-555059,TcSb(OF4)2,2.8188
mp-555100,NbBiO4,2.520299999999999
mp-555579,K2FeF5,3.6779
mp-555650,NdSeClO3,4.1926
mp-556015,Dy9(SbO)5,0.0
mp-556122,BaCa(PO3)4,5.524199999999999
mp-556276,Mo2P2PbO12,2.7114000000000003
mp-556341,Ti4S8Br6O,1.394299999999999
mp-556717,Tl3Ga9S13O2,2.2101
mp-557111,Sr3CaRu2O9,0.0
mp-558211,Cs2NaCoF6,2.801
mp-558259,Pr3Si2S8I,2.575099999999999
mp-558650,UCu2(PO5)2,0.0
mp-558706,RbGa3S5,2.5213
mp-558980,Er3CuSiS7,1.893199999999999
mp-560349,La3NbO7,2.848
mp-560376,RbV2I3O13,1.8206
mp-560502,Ba2CuTeO6,0.011699999999999001
mp-560538,Na3AlS3,2.907
mp-560587,Rb2Sb8O13,2.3306
mp-560755,CaVBiO5,3.2555
mp-560847,Nb2TlPS10,1.4255
mp-560934,Na2Zn5(PO4)4,3.6589
mp-561203,F2,2.934
mp-561210,UV2PbO9,2.1498
mp-561226,BTe3(OF5)3,3.8123
mp-561248,SmCuTeS,0.14369999999999902
mp-561418,Zr3O,0.0
mp-561533,SbOF,3.3334
mp-561851,CsNO3,3.2977
mp-567195,Ce2Ga12Ni,0.0
mp-567413,TbInPt,0.0
mp-567748,Zr2Al3C4,0.0
mp-567916,Nd23Cd4Rh7,0.0
mp-568155,U(AlC)3,0.0
mp-568186,YRu2,0.0
mp-568280,Ba(NiAs)2,0.0
mp-568326,Pr2WC2,0.0
mp-568537,YbInAu2,0.0
mp-568620,CsFeI4,0.6385000000000001
mp-568880,YInPd2,0.0
mp-568974,Ca(CuSn)2,0.0
mp-568985,La2B3Br,0.0
mp-569015,MgCuAs,0.0
mp-569859,MnTl2SnTe4,0.3397
mp-569885,Cs2TaCl6,0.0
mp-570058,Eu(GeIr)2,0.0
mp-570100,Tm(NiP)2,0.0
mp-570152,Co2(SnSe)3,0.328
mp-570167,Rb3SnP3Se11,0.7856999999999991
mp-570306,TlGaI4,2.556599999999999
mp-570855,SmAgPb,0.0
mp-571581,SmSnPd,0.0
mp-571609,HfGaPt,0.0
mp-572510,K3AgO2,1.8095999999999992
mp-572903,CsCu2F5,0.0
mp-573498,Yb(AlGa)2,0.0
mp-574176,Ba(InAu)2,0.0
mp-5821,TaAgS3,0.005999999999999
mp-607077,Ce(Al4Fe)2,0.0
mp-6098,ErNi2B2C,0.0
mp-6191,CeB2Rh2C,0.0
mp-622183,Co2PClO4,2.6318
mp-630851,Cs3NaPb4,0.8477000000000001
mp-637575,AlCr3B4,0.0
mp-638226,La2Ga12Pd,0.0
mp-640372,Dy5NiPb3,0.0
mp-642273,U6Fe16Si7C,0.0
mp-643547,CoH2SO5,1.214799999999999
mp-643801,K2H6PbO6,2.1354
mp-6485,La3SiAgSe7,1.7121
mp-650007,Cs4TlSbCl12,1.0283
mp-650137,Cs4Re6Se13,1.002199999999999
mp-672225,BaZn13,0.0
mp-6724,K2Cd2(SO4)3,3.752799999999999
mp-675452,Ti20H2N17,0.0
mp-679958,Na3Nd2(NO3)9,3.4964
mp-684020,Ce12C6I17,0.0
mp-685633,Y10U4O27,1.686999999999999
mp-690772,V5S8,0.0
mp-691115,Li4Mn5O12,0.9979
mp-696,SiPt,0.0
mp-699658,Na4VS3O13,2.6612
mp-7138,YbSb2,0.0
mp-7192,Sc2Sb,0.0
mp-7199,RbPrTe4,0.1995
mp-720376,H4SeO5,3.5177
mp-754897,BaTl2O4,0.292199999999999
mp-755652,Dy3TaO7,3.408
mp-756301,Cd(CoO2)2,1.956599999999999
mp-756919,Mg3(AsO4)2,3.657499999999999
mp-769597,Li2CoGe3O8,2.4709
mp-771941,LiV(SO4)2,1.870699999999999
mp-774848,H10SeO8,3.9947
mp-8116,K(MoS)3,0.7039999999999991
mp-8418,ZrCoP,0.0
mp-861637,Ti2AlTc,0.0
mp-861987,PaIn3,0.0
mp-861995,PaNi2Sn,0.0
mp-862287,BeAlRh2,0.0
mp-862324,Sc2GaTc,0.0
mp-862605,Rb4Zr6CCl18,1.2662
mp-862698,Ac2SiAu,0.0
mp-862778,AlSiRu2,0.0
mp-862788,Er2ZnIn,0.0
mp-862805,PrSnAu2,0.0
mp-862861,Pa3Si,0.0
mp-862897,PmCdPt2,0.0
mp-863724,InPd2Au,0.0
mp-864662,HoCl3,3.7396000000000003
mp-864732,Yb2CdGe,0.0
mp-865002,CaYRh2,0.0
mp-865225,TmMgAu2,0.0
mp-865356,Tm2MgAl,0.0
mp-865383,Tm2OsRu,0.0
mp-865465,VCo2Ge,0.0
mp-865499,V2TcOs,0.0
mp-865566,LuZnRh2,0.0
mp-865947,YbPrAg2,0.0
mp-866027,YbRh2Pb,0.0
mp-866068,TbMgAu2,0.0
mp-866073,MgSnRh2,0.0
mp-866164,YMgHg2,0.0
mp-866481,Co2(SnTe)3,0.41450000000000004
mp-866660,K3P2AuSe8,1.2184
mp-867114,TaBeRu2,0.0
mp-867199,Pm3Tl,0.0
mp-867226,Li3In,0.0
mp-867283,Ho2CuRu,0.0
mp-867297,AcIn3,0.0
mp-867475,TaSnRu2,0.0
mp-8676,Tl(CuS)2,0.0
mp-867843,RbUTe3Au,0.0
mp-867893,SmI3,2.1171
mp-867913,LiHo2Ir,0.0
mp-867943,Na3H7Os,2.6315
mp-8792,Yb11(Ni10C)6,0.0
mp-907,W18O49,0.0
mp-9122,CaP3,0.0631
mp-9387,TbCuGe,0.0
mp-9481,TcS2,1.1825
mp-9556,SrZnSi,0.0
mp-9639,BaCu(SeO3)2,0.3664
mp-966582,CaAlH5,2.7243999999999993
mp-972759,Tm2Ni12As7,0.0
mp-974724,ReClO3,3.5923
mp-977054,La(Al2Fe)4,0.0
mp-977362,ZnGaRh2,0.0
mp-977401,NbGaRu2,0.0
mp-977425,Ta2CrRu,0.0
mp-977538,ErZnRh2,0.0
mp-977553,Yb2PtAu,0.0
mp-978989,Tc7B3,0.0
mp-9801,HfCoAs,0.0
mp-980199,YbDyHg2,0.0
mp-985277,Ce2USe5,0.0
mp-985583,Li3PS4,2.833
mp-9880,YB2C,0.0
mp-9905,Ba2Si,0.0553
mp-998427,BaZrSe3,0.37369999999999903
mp-999119,TbTlS2,1.7080000000000002
mp-999289,PrTlSe2,1.4477
mp-999491,NaCeSe2,0.074599999999999
mp-1006324,Ce(YS2)3,0.0
mp-1018681,DyZnIn,0.0
mp-1018694,ErZnGa,0.0
mp-1018742,LaNi2Rh3,0.0
mp-1018811,NbGeSb,0.0
mp-10374,Cr3PtN,0.0
mp-10383,LaTeAs,0.130999999999999
mp-10445,Sc6FeTe2,0.0
mp-10580,La(AlGe)2,0.0
mp-1064554,BiRh,0.0
mp-1068296,Fe(BW)2,0.0
mp-1068387,LaGe3Ru,0.0
mp-1069357,Eu(CuSn)2,0.0
mp-1072537,CeSiNi4,0.0
mp-1076961,Er2GeRh3,0.0
mp-1076973,TiGeSb,0.0
mp-1077469,Li3GdBi2,0.0
mp-1077593,SmSn2,0.0
mp-1078202,Yb2SnGe2,0.0
mp-1078225,BaLaSi2,0.0
mp-1078269,Sr2UCu2S5,0.0021000000000000003
mp-1079348,B3Os2,0.0
mp-1079357,TbAlCu,0.0
mp-1079471,TmZnPd,0.0
mp-1079842,HfGaRh,0.0
mp-1079843,LaMgAg,0.0
mp-1080606,La(SiPt)2,0.0
mp-1080624,YInCu,0.0
mp-1080757,Ta2CrB2,0.0
mp-1080845,CsMoN2,0.0
mp-1084778,CsZn4As3,0.6175
mp-1094174,LaMg3,0.0
mp-10964,CeB2Ir2C,0.0
mp-1101764,NdAsS,0.21950000000000003
mp-1101822,EuSbPd,0.0
mp-1101897,GdAsS,0.182599999999999
mp-1102248,TmAlAu,0.0
mp-1102476,TbAsSe,0.5578999999999991
mp-1102504,CoPW,0.0
mp-1102992,HoAlAu,0.0
mp-1103472,Na2UF8,2.5957
mp-1103608,ZrGePd,0.0
mp-1104102,Yb(Ni2As)2,0.0
mp-1104739,Ho(GaFe)6,0.0
mp-1104926,Sr2SiS4,2.8995
mp-1105393,Li7(Eu2Bi3)2,0.0
mp-1105560,YCr4(CuO4)3,0.1774
mp-1106373,Sm5Si3,0.0
mp-1112519,Cs2RbEuCl6,0.0
mp-1112534,Cs2NaScBr6,3.1426
mp-1114355,KRb2TlF6,3.8754
mp-1114508,Rb2LiEuCl6,0.0
mp-11360,ScGaCu2,0.0
mp-11476,HoIr,0.0
mp-11652,Yb3PbO,0.654799999999999
mp-1182477,AsN(OF3)2,2.749799999999999
mp-1182756,Cs5Tc6S8Br7,1.7601
mp-1184490,GdMgAg2,0.0
mp-1185294,LiAc2Pb,0.0
mp-1185527,LuPaRe2,0.0
mp-1185768,Mg2IrPt,0.0
mp-1186189,NaTl3,0.0
mp-1186436,Pm2CdHg,0.0
mp-1186514,Pm3Hg,0.0
mp-1186579,PmEuZn2,0.0
mp-1186623,PmGdHg2,0.0
mp-1186639,PmPuAu2,0.0
mp-1187031,SmTmIn2,0.0
mp-1187174,SrEuTl2,0.0
mp-1187210,Ta2TcOs,0.0
mp-1188255,LiLaGe2,0.0
mp-1188274,La5Pb3Se,0.0
mp-1188604,U3Sb4Pt3,0.0043
mp-1188624,Tb6GaCo2,0.0
mp-1188684,Tb6RuBr10,0.0
mp-1188994,Tb3Co,0.0
mp-1189009,U2Si5Rh3,0.0
mp-1189104,Eu3(GaP2)2,0.040199999999999
mp-1189448,Zr5GaPb3,0.0
mp-1189495,TbB2Os,0.0
mp-1189895,Ta5Ge3B,0.0
mp-1190029,Sm3Os,0.0
mp-11906,LiPr2IrO6,0.0
mp-1190788,TaTe4Rh,0.0
mp-1191037,AgAs(SeF2)3,1.7328999999999999
mp-1191159,LiPrSn,0.006199999999999001
mp-1191492,LaPS,0.530999999999999
mp-1191749,Y2Ir2O7,0.0
mp-1191758,Dy2Ni12As7,0.0
mp-1192218,Pr3Mn2Sb3O14,0.0
mp-1192392,CsOs2O9,0.9209
mp-1192746,LiAs2H3O7,3.307
mp-1193232,Rb2MoSe4,1.0365
mp-1193832,Zr9FeMo4,0.0
mp-1193887,BeCr2O4,2.8453
mp-1193957,Pr(Al5Ru)2,0.0
mp-1194170,Dy6Al7Cu16,0.0
mp-1194276,Ca(HoS2)2,1.5528
mp-1194410,Ba(GdSe2)2,1.2498
mp-11945,SmAl4Ni,0.0
mp-1195096,MgSb3XeF23,1.6103
mp-1195568,Ba4InAgS6,1.6864
mp-1196612,Rb2PS3,2.8545
mp-1197099,Tb3(Si3Ru)4,0.0
mp-1197252,Tb2ZrS5,1.181899999999999
mp-1197508,Ho11Cd45,0.0
mp-1197565,Ce(Cd10Pd)2,0.0
mp-1198114,RbSb3Se5,0.685099999999999
mp-1199087,CdSnP14,1.444499999999999
mp-1199571,Lu11Cd45,0.0
mp-1199868,Y6Al43W4,0.0
mp-1200099,Rb2ZnBr4,3.7026
mp-1200631,InSb3F18,3.4916
mp-1200972,HfCrGe2,0.0
mp-1201665,Er6Al43Cr4,0.0
mp-1202101,Ce8Re13B12,0.0
mp-1202254,Ho3Ge13Os4,0.0
mp-1203212,Yb(NO3)3,0.0
mp-1203532,K4Ag18Te11,0.0
mp-1203634,Sr6Sn12Pt11,0.0
mp-1205201,Dy3Rh2,0.0
mp-1205483,Tm2(CN2)3,2.5044
mp-1205718,LaSiOs2C,0.0
mp-1205770,ErMgTl,0.0
mp-1205834,Er2Al4NiGe2,0.0
mp-1205835,TbMgGa,0.0
mp-1205882,ErRe2SiC,0.0
mp-1206192,Y7(TeAu)2,0.0
mp-1206219,Sm2CdRh2,0.0
mp-1206262,ErInCu4,0.0
mp-1206289,PuAl3Pd2,0.0
mp-1206378,Zn7Tc,0.0
mp-1206512,PrIn2Rh,0.0
mp-1207018,TbFeSi2,0.0
mp-1207413,Zr5Sn3C,0.0
mp-1207561,Zr8Bi13,0.0
mp-1208067,Tm4CdPd,0.0
mp-1208125,Tm3Ga5O12,3.3387000000000002
mp-1208470,TbIn2Pd,0.0
mp-1208491,Tb3(SbPd2)4,0.0
mp-1208649,SmGeIr,0.0
mp-1208935,Sm3(Al3Os)4,0.0
mp-1208977,Sm3(SiRh)2,0.0
mp-1209001,Sm3(Ge3Pd10)2,0.0
mp-1209226,RbGaAgF6,0.089199999999999
mp-1209255,RbSb2PO8,2.2799
mp-1209423,RbBa2I5,3.7766
mp-1209491,Rb8Zr6BeBr20,0.907
mp-1209547,PrAsSe,0.128299999999999
mp-1209847,NdNiAs,0.0
mp-1209911,NdSbIr,0.0
mp-1209989,Nd4CdPt,0.0
mp-1210122,NaMn4(AsO4)3,1.1139000000000001
mp-1210791,LuPPd,0.0
mp-1211291,Na20Zn7Sn12,0.0228
mp-1211409,KTb(MoO4)2,3.611999999999999
mp-1211473,KLa(WO4)2,3.8205999999999998
mp-1211782,KZr6NCl15,0.0
mp-1211982,LuNb6Cl13O3,0.947099999999999
mp-1212115,HoFeB4,0.0
mp-1212359,Ho2(Al3Pd)3,0.0
mp-1212407,HfBi,0.0
mp-1212410,LaInNi5,0.0
mp-1212432,K4Te8O23,1.338799999999999
mp-1212456,GdGa3Os,0.0
mp-1212754,Gd(ClO4)3,2.3893
mp-1212923,Dy4MgIr,0.0
mp-1213009,DyTl(MoO4)2,3.2848
mp-1213199,Dy3(Si3Pd10)2,0.0
mp-1213256,CsEuCl3,0.0
mp-1213698,Cs6Na4Tl13,0.0
mp-1213927,Ce3PBr3,0.0
mp-1213936,Ce2Sn3,0.0
mp-1214667,As3Pb5O12F,3.298499999999999
mp-1216181,Y2(B2Rh3)3,0.0
mp-1216330,VFeSbO6,1.5438
mp-1217067,Ti2ReOs,0.0
mp-1217138,Ti3V2Si3,0.0
mp-1217977,SrNdVO4,0.0
mp-1218230,SrInAu5,0.0
mp-1218256,SrIn3Hg,0.0
mp-1218524,Sr6Zn(RuO6)2,0.096099999999999
mp-1219237,Si4MoW,0.0
mp-1219972,PrGaSi,0.0
mp-1220249,Pr14Ag51,0.0
mp-1220298,Ni17(GeSe)4,0.0
mp-1220545,Nd2MnFeO6,0.6755000000000001
mp-1220990,NaH3(SeO3)2,4.3393000000000015
mp-1221459,Na2Ca(Ge3O7)2,2.7026
mp-1223052,La2ZnBi4,0.0
mp-1223076,La4B4I5,0.0
mp-1223468,KTaW2O9,1.457399999999999
mp-1224422,Hf3Ga3Pd2Pt,0.0
mp-1224631,La5Se6N,1.588099999999999
mp-1225373,Dy2P7Rh12,0.0
mp-1225493,ErBPtRh2,0.0
mp-1225510,DyPaO4,2.6449
mp-1226509,CeZnCuP2,0.0
mp-1226784,Ce2Mn(SeO)2,0.0
mp-1226796,Ce2ZnSb4,0.0
mp-1226839,Ce2AlFe3,0.0
mp-1227416,Ca2(ZnAu3)3,0.0
mp-1227971,BaCdSn,0.0
mp-1228744,Ba3V4(PO4)6,2.037899999999999
mp-1232234,PmSe,0.0
mp-1232235,PmS,0.0
mp-1232276,PmS2,0.45969999999999905
mp-1245502,Li2TiN2,0.827199999999999
mp-1250,Lu2In,0.0
mp-12669,Dy2SO2,3.115099999999999
mp-12921,PrPIr,0.0
mp-1299,SiPt2,0.0
mp-12990,Ti2AlC,0.0
mp-13200,LuCuSn,0.0
mp-13218,YMg2Cu9,0.0
mp-13459,NaCdSb,0.016900000000000002
mp-13512,CaNiGe2,0.0
mp-1364,YNi,0.0
mp-14025,Zr2CuS4,0.0
mp-14246,Ba(AlS2)2,3.651299999999999
mp-14802,LuAu2F9,1.9441000000000002
mp-15095,Ca3Si2SnO9,3.4391
mp-1563,CaSi,0.0
mp-1576,TmNi2,0.0
mp-15856,DyRh3C,0.0
mp-15888,Ba2YIrO6,0.0
mp-16594,K3TbSi2O7,3.688
mp-16627,TmAl7Au3,0.0
mp-16638,Nd2MgCu2,0.0
mp-16792,Ba4LiTa3O12,3.107
mp-17446,PrPtF7,2.4542
mp-17460,Lu5(Co2Si7)2,0.0
mp-17805,Ba2SnSe3F2,1.722199999999999
mp-17901,MnSe2O5,2.0877
mp-18115,K2Sn2Hg3S8,1.4334
mp-18367,Yb(Al4Co)2,0.0
mp-18568,Na2Ge2S5,2.5464
mp-18648,Zr2Ni12P7,0.0
mp-19104,LiYb(WO4)2,0.8375
mp-19177,CrO2,0.0
mp-19192,Y2MnNiO6,0.0
mp-1924,TbSi,0.0
mp-1973,NbGa3,0.0
mp-19788,Tb2Ge2Ru,0.0
mp-20012,InSb,0.0
mp-20102,Gd(PdO2)2,0.0
mp-20115,Eu(SiPd)2,0.0
mp-20122,DyGe,0.0
mp-20418,SiRh2,0.0
mp-2042,HoNi3,0.0
mp-2052,ScAs,0.0
mp-20630,Ho(MnSn)6,0.0
mp-20662,Sn4Pt,0.0
mp-20735,Ce3Sn,0.0
mp-20799,Er2ReC2,0.0
mp-20844,Dy3(CuSn)4,0.0
mp-20956,Gd(SiNi)2,0.0
mp-21075,HfC,0.0
mp-21129,Sr2Cu2O5,0.0
mp-21153,ErGeIr,0.0
mp-21170,KPb2,0.0
mp-21178,U2Co3Si5,0.0
mp-21201,LaGa3Pd2,0.0
mp-21407,EuAl9Co2,0.0
mp-21542,K2CeTa5O15,0.0
mp-21575,Pr3InSe6,0.6862
mp-21766,Ba(InSe2)2,1.687
mp-21989,Ca3Sc2(GeO4)3,3.4667
mp-22191,HfFeGe,0.0
mp-22282,LaIn2,0.0
mp-23358,Hg5(ClO2)2,0.295399999999999
mp-23451,Cs3Cr2Br9,1.353
mp-23543,Hg5(BrO2)2,0.129
mp-2392,Th2Se5,1.3374000000000001
mp-24410,CoH4(BrO)2,2.4167
mp-24747,Na3H6Rh,3.1104
mp-2610,Tb5Ge3,0.0
mp-2684,TbGa2,0.0
mp-28065,ThNCl,2.500899999999999
mp-28412,Ho2Ni12P7,0.0
mp-28507,La8Nb7S22,0.0
mp-28730,In7Cl9,2.1903
mp-28812,Ag5BiO4,1.4712
mp-28837,K3RhCl6,1.7025000000000001
mp-28934,Ta2Te5Pd3,0.0
mp-29183,LaNb7O12,0.41640000000000005
mp-29315,Sc7(CCl5)2,0.0
mp-29792,CaNb2O4,1.298999999999999
mp-29821,Gd4B3C4,0.0
mp-30393,LuInAu2,0.0
mp-30483,CaZn,0.0
mp-30506,CeHg2,0.0
mp-30517,Sr3Sn13Rh4,0.0
mp-3053,DyAlNi,0.0
mp-30551,GaFeCo2,0.0
mp-30853,Tl2Pt3,0.0
mp-31091,Lu2Pd2Pb,0.0
mp-31286,K3Bi,0.024999999999999002
mp-31313,K3PSe4,1.685899999999999
mp-31473,K2Hg7,0.0
mp-3275,PrFeSi2,0.0
mp-3563,Ba5Nb4O15,2.5999
mp-3640,Nb6Si7Ni16,0.0
mp-36407,Nd2EuSe4,0.4877
mp-3804,Sr(PRu)2,0.0
mp-3897,SmPS4,2.222
mp-408,Mg2Ge,0.2505
mp-4653,Y(SiIr)2,0.0
mp-4808,NdAgSn,0.0
mp-4999,Nd(CoGe)2,0.0
mp-505801,Eu2Ti2O7,0.0
mp-5088,NaGdO2,3.1502
mp-510280,CeAgSb2,0.0
mp-510409,TiSiNi,0.0
mp-532273,Ba2(Mo2S3)3,0.0
mp-540640,Sr2Ti6O13,0.0
mp-540907,Ba3NiIr2O9,0.0
mp-541646,Cs3Ru2Cl9,0.493299999999999
mp-541694,K2Na3SiP3,0.8887
mp-542135,Mo2NCl7,0.1003
mp-542455,Ca2B5Os3,0.0
mp-545529,NdBi2ClO4,1.328699999999999
mp-546,HoRh2,0.0
mp-550805,LuBi2ClO4,1.532099999999999
mp-551250,ErBi2IO4,1.400599999999999
mp-552008,DyBi2ClO4,1.4562
mp-554255,Ba3(PS4)2,2.1538
mp-554461,K(OsO3)2,0.0
mp-554784,V2Ni(PO5)2,1.5999999999999992
mp-555194,SiHg3(SF3)2,2.7984
mp-555407,Nd6Si4S17,2.4981
mp-555804,Na3Nd14(RuO6)6,0.0
mp-555970,NaTl2MoF6,3.133199999999999
mp-556091,Cs3Ta2S11,1.688299999999999
mp-556960,Sr3Fe2(SeO3)6,2.4393000000000002
mp-557103,B5Pb2ClO9,3.489
mp-557654,RbCr2BiO8,2.4216
mp-558986,CaMn6SiO12,0.6907999999999991
mp-559109,ErGeBiO5,3.3478
mp-559758,Rb2CaV2O7,3.4711
mp-559817,Na3(CuO2)2,0.0
mp-560370,Ge(PbS2)2,2.1082
mp-560925,Na5Fe3F14,3.2652
mp-5615,CaAgAs,0.1257
mp-561518,Mg2BiAsO6,3.351899999999999
mp-567214,NdSnRh,0.0
mp-567348,TmInPd2,0.0
mp-567412,Y5Sn3,0.0
mp-567574,DyAgGe,0.0
mp-568417,PrAl,0.0
mp-568954,Nd3CuGeSe7,1.2899
mp-568966,NdBC,0.0
mp-569018,Mg3Bi2,0.0
mp-569220,ErRu2,0.0
mp-569427,K4Sn(TeSe)2,1.5606
mp-569661,YbInCu4,0.0
mp-569803,B2W,0.0
mp-569818,Er3Si3Ni,0.0
mp-569962,Rb2Tb10C4Br19,0.1554
mp-570240,La14C14Cl9,0.0
mp-570436,CaIr2,0.0
mp-570578,ZrIn3,0.0
mp-570801,Y3(Ge3Pt2)2,0.0
mp-570940,Ho7In(CoGe3)4,0.0
mp-571094,Th7Ir3,0.0
mp-571347,Pr3CuGeSe7,1.284899999999999
mp-571472,Ce3CuSiSe7,0.0044
mp-572452,CsPr(MoO4)2,3.7024
mp-5787,SrCuO2,0.0
mp-581987,Dy(Zn10Rh)2,0.0
mp-582161,K3Ta2Ag3Se8,2.0765
mp-582976,MoP2NCl12,0.0
mp-583224,EuCo8P5,0.0
mp-5915,TlNO3,2.786699999999999
mp-6074,KRb2TiF6,0.0
mp-613206,EuGe2Ir,0.0
mp-620609,Ba15(ZrSe3)14,0.2641
mp-622624,Rb2Cr2As2O9,2.1846
mp-627,NpSe,0.0
mp-628,Zr2Co,0.0
mp-629511,Ce2SbS5Br,0.0
mp-632715,Cs3CeF6,0.040100000000000004
mp-636320,TiGaFe2,0.0
mp-639526,La2(ZnGe2)3,0.0
mp-641534,Nd3CuSiSe7,1.4364
mp-643697,Rb3MnH5,0.0
mp-646,PrCd,0.0
mp-646129,RbEuAsS3,0.0
mp-649616,Pd(XeF8)2,1.4046
mp-6576,YNi2B2C,0.0
mp-6623,Rb2Cd2(SO4)3,3.6774
mp-6645,Ba14Na14CaN6,0.0
mp-667305,ReN(OF2)3,2.6214
mp-667315,ScNb6Cl13O3,0.9298000000000001
mp-6706,TiTlPO5,2.647299999999999
mp-673814,La3U2O10,0.12560000000000002
mp-677237,Y3U2O10,0.14369999999999902
mp-680182,Bi9Ir2I3,0.5545
mp-680294,Tl2Cl3,1.774499999999999
mp-680334,LaSb(SBr)2,2.098299999999999
mp-683903,Cs3Nb2AsSe11,1.286399999999999
mp-683955,KTaPS6,1.7348999999999992
mp-683967,Cd7Te7Cl8O17,3.3694
mp-686651,Ca9LaTi10O30,0.0
mp-694888,Ba8Mn8O21,0.8376
mp-729,Cr3Si,0.0
mp-7523,Th2TeN2,1.670799999999999
mp-753354,Eu4O3F7,0.0
mp-753552,Cu4PtO5,0.0
mp-754154,CsHoO2,2.8143000000000002
mp-757365,LaTa3O9,2.3038
mp-757636,NbTlO3,0.7509999999999991
mp-758025,Ba3(RhO2)14,0.0
mp-769211,Tb2Pb2O7,0.9666999999999991
mp-769345,Ho3ReO8,1.7674
mp-770995,Co2HgO4,1.1432
mp-771359,Cu2O3,0.0
mp-774567,Er2TiO5,3.295899999999999
mp-774707,Li5Mn5(SeO3)8,0.792899999999999
mp-774941,Li(NiO2)2,0.7825000000000001
mp-776264,LiFeF4,3.236399999999999
mp-7818,Pd4Se,0.0
mp-8094,Ba2Hg,0.0
mp-8120,NdCuSi,0.0
mp-8204,LiAlB14,1.293199999999999
mp-8250,La(NiP)2,0.0
mp-8378,Tl3SbS4,1.704299999999999
mp-855,MgBe13,0.0
mp-862321,LiAsPd2,0.0
mp-862360,Sc2NiIr,0.0
mp-862367,Sc2NiRu,0.0
mp-862685,LiAc2Ir,0.0
mp-862718,SrSn(PO4)2,3.615199999999999
mp-862848,Pa3Al,0.0
mp-862952,PmNi2Sn,0.0
mp-864624,HoZnRh2,0.0
mp-865195,TmGaRh2,0.0
mp-865323,Tm2Mg,0.0
mp-865497,V2ReOs,0.0
mp-865714,Li2HgAu,0.0
mp-865766,YbHgPd2,0.0
mp-865842,Ti2OsRu,0.0
mp-865921,MgAlIr2,0.0
mp-865940,LiThAu2,0.0
mp-865960,CoRe3,0.0
mp-866104,CaCdHg2,0.0
mp-866137,LuSbRh2,0.0
mp-866216,CaDyRh2,0.0
mp-866274,CeCdHg2,0.0
mp-866615,CsAg2AsS3,1.6634
mp-867004,Th2Ni7,0.0
mp-867107,BeSiOs2,0.0
mp-867224,CaNdCd2,0.0
mp-867817,LaTlAg2,0.0
mp-8719,K2MnTe2,0.0
mp-877,Er2In,0.0
mp-8923,Sr2LiFe2N3,0.0
mp-9318,KZrCuSe3,0.24879999999999902
mp-973069,HoLuTl2,0.0
mp-973843,Pa2SbTe,0.0
mp-974790,Rb5Tl11Cd2,0.0
mp-977376,TbCdAu2,0.0
mp-977475,ZrInPd2,0.0
mp-977549,Zr2OsRu,0.0
mp-978910,TbYRh2,0.0
mp-9918,LiGe,0.0
mp-9925,Ca2Sb,0.0
mp-9929,ZrCuSiAs,0.0
mp-998306,CsPdBr3,0.0
mp-998344,CsAgBr3,0.0
mp-999376,NbPt,0.0
mp-1005693,Sm2InHg,0.0
mp-1005789,Sm2(Ga3Co)3,0.0
mp-1008833,NpN2,0.0
mp-1018711,GdZnIn,0.0
mp-10192,LuP,0.0
mp-1019520,Ba3Ca2(SiN3)2,1.8748
mp-1025001,ErNi4Au,0.0
mp-1025129,TmSnGe,0.0
mp-1025198,NpGa5Ni,0.0
mp-10302,Ba2ScIrO6,0.0
mp-10606,Sm3TlC,0.0
mp-1065995,ZrPt,0.0
mp-1069287,Nd2CdCu2,0.0
mp-1071459,GdZrSb,0.0
mp-1077367,Ce2Bi,0.0
mp-1077470,CaNiGe,0.0
mp-1077578,CeGaAg,0.0
mp-1078003,DyGa5Co,0.0
mp-1078035,Sm2Cr2C3,0.0
mp-1078224,CeAl4Si2Rh,0.0
mp-1078453,BaAlGeF,0.0
mp-1078574,HfNi2Sb,0.0