material_id,pretty_formula,band_gap
mp-29988,CsPd2Cl5,1.3551
mp-30593,ZnCu2Ni,0.0
mp-30651,MgGa2,0.0
mp-30941,Cd2(TeO3)3,1.930899999999999
mp-31015,Ta3SBr7,0.8622999999999991
mp-31176,HoNiSn,0.0
mp-3252,SrTe3O8,2.5217
mp-32833,Ho6Se11,0.549299999999999
mp-34787,Ag7NO11,0.0
mp-367,Sm4Sb3,0.0
mp-38108,Ba3Pt2O7,0.0
mp-4433,Ce(SiIr)2,0.0
mp-4520,Y(CuGe)2,0.0
mp-4703,Th(Al2Fe)4,0.0
mp-4721,RbSb3Se5,1.2194
mp-4984,SiB2Mo5,0.0
mp-504994,K3Cr(HO)6,3.25
mp-510125,Ce(Ni2Sn)2,0.0
mp-510324,Ce3(SiNi3)2,0.0
mp-5189,AlAsO4,3.8932
mp-530933,Li5P2N5,3.4494
mp-540332,Nb2(PO4)3,0.0
mp-540593,CaCr2O4,0.0
mp-540689,Ba2SnS4,2.3106
mp-541014,Cs3Sb2I9,1.544599999999999
mp-542302,CuBi3PbS6,0.6796999999999991
mp-542570,AsSe,1.5425
mp-551283,Na2Cu2TeO6,0.082899999999999
mp-551407,CoSeO4,1.4785
mp-554593,TbTaO4,4.149599999999999
mp-554853,Na4Si3(SnO6)2,3.0661
mp-555296,YbTaO4,0.0
mp-555502,Pr5Ti4FeO17,1.9418000000000002
mp-555784,Na2U(MoO5)2,2.2720000000000002
mp-556157,LiTl3(MoO4)2,3.828999999999999
mp-557115,Cs2As2OF10,3.948699999999999
mp-557195,KCa2Nb3O10,1.956799999999999
mp-557450,Na2PtO3,1.569599999999999
mp-558151,Ag2PO3F,1.1394
mp-558581,P2W2O11,2.8508
mp-558631,Mn3(PO4)2,2.9532
mp-559180,Ba2Cu(BO3)2,0.0
mp-559460,Cs2Ti(Si2O5)3,3.3028
mp-559498,K9Bi5O13,1.071999999999999
mp-559520,In2Ag3(PO4)3,0.9983000000000001
mp-559562,AgTeNO5,2.0326
mp-559933,Ba3In2Cl2O5,1.4493
mp-560266,Na3B5SO8,3.8686
mp-560414,Te4Mo(OF4)5,2.9757000000000002
mp-560731,Ba2Ti9O20,2.7394
mp-561068,BiAsO4,2.7515
mp-562473,LiSn2(PO4)3,3.1282
mp-562731,La4Ti9(Si2O15)2,0.0
mp-567022,K3Bi5(AsO4)6,3.4166
mp-567322,KSm2Sb3Se8,0.5093999999999991
mp-567471,HgI2,1.5319
mp-567537,TaI4,0.5979000000000001
mp-567828,K4La6OsI14,0.0
mp-568136,RbVBr3,0.5946
mp-568546,In5Br7,2.0779
mp-569531,Rb2CuBr3,2.2507
mp-569759,Zn5(BRh2)4,0.0
mp-570125,Hg2TeBr3,1.9471
mp-570168,Rb2ZnBr4,3.6395
mp-570645,Ca2Si5N8,3.646099999999999
mp-571100,CsAgBr2,1.8386
mp-571302,Pr3(Al2Si3)2,0.0
mp-581324,Ba2VI5O17,2.8485
mp-581919,Na6Mo11O36,2.6018
mp-607399,Al2CrCl8,0.8876000000000001
mp-622203,BaMnGaF7,3.625
mp-623066,GaPt3,0.0
mp-630875,Ca2In4Au3,0.0
mp-637232,TaSe2,0.0
mp-641112,ReO2F3,3.2953
mp-642642,Ba2(InP)5,0.30870000000000003
mp-643718,BaMgH4,2.4893
mp-651301,NaIn(MoO4)2,3.5954
mp-653861,K3Lu(SiO3)3,3.8053
mp-669317,Cs3CdI5,2.7925
mp-669466,AgNO3,2.0111
mp-672194,CaIn4Ni,0.0
mp-672240,TbNi,0.0
mp-674361,LiNbO3,2.939399999999999
mp-674456,Zr10HN8,0.0
mp-675238,Na3Ce5Cl18,0.0
mp-675327,Ag9(PbO3)4,0.0
mp-675479,PuPaO4,0.0
mp-675710,K2U2O7,1.624499999999999
mp-676737,K9(NbAs3)2,0.6128
mp-676767,Ba4Yb3F17,0.0
mp-679962,Ti8Se3,0.0
mp-680576,Ti2Se,0.0
mp-684003,Ti9Fe2(B4Ru9)2,0.0
mp-684822,Co19Te34,0.0
mp-686057,LiNbO3,3.0473
mp-696649,KH2I3O,1.9125
mp-707190,K2SnBr6,0.053599999999999
mp-722267,Na5H7(Se2O9)2,3.5448
mp-722502,Li3P11(H3N)17,1.9667999999999992
mp-746030,NaFePO4,3.2921
mp-752442,BaLu2O4,3.6529
mp-753823,CeTh3O8,1.958899999999999
mp-754015,Li2VCrO4,1.5376
mp-754427,LiFe3(OF3)2,1.9677
mp-755697,V2O3F,1.1615
mp-756280,Li2Ti3CrO8,0.0
mp-756372,Rb2MgO2,2.279899999999999
mp-756472,V3Sb(PO4)6,0.9337000000000001
mp-756812,Rb3ErO3,2.1535
mp-758209,Li2FeSiO4,3.0894
mp-758511,Li2V2(PO4)3,1.146
mp-759307,TiNb2O7,2.0465
mp-760134,NbSb3O8,1.7896
mp-760282,Li2VOF4,2.1913
mp-761827,Na3CuO3,1.2115
mp-763192,V2OF5,1.6803
mp-764774,LiTi2V3O12,2.302699999999999
mp-765844,Na5(NiO2)8,0.0
mp-766228,P2WO8,2.2697
mp-766541,P5(WO6)4,2.4817
mp-768923,Bi4(B2O5)3,3.4574
mp-769466,Y2Ge2O7,3.9088000000000003
mp-769611,Li4V3CrO8,1.9340000000000002
mp-770379,Tm2GeO5,3.3812
mp-770423,Mg2Mn3O8,1.35
mp-772410,Ti(SO4)2,2.271
mp-772676,Sr2WO5,3.210099999999999
mp-772962,K2W3O10,1.3463
mp-774547,Er2GeO5,3.8663
mp-774736,LiCuS,1.6984
mp-774951,Li2MnCr3O8,0.685999999999999
mp-775823,Zr2N2O,1.6463
mp-775843,Zr2N2O,1.685
mp-775861,Zr2N2O,1.6757
mp-776213,Hf2N2O,2.0237
mp-776260,Zr2N2O,1.6417000000000002
mp-777529,Li2VF6,1.923099999999999
mp-779863,Hf2N2O,2.056999999999999
mp-780232,Hf2N2O,2.0465
mp-781495,Na2Co2O3,1.1591
mp-849226,LiFeF4,3.4418
mp-850338,Li4VCr3O8,0.0
mp-861,Hf2Ni,0.0
mp-861512,PrCrSe3,0.0
mp-861664,LiTmAu2,0.0
mp-861734,AcZnAu2,0.0
mp-861885,LiDyAu2,0.0
mp-861960,CaInAu2,0.0
mp-862976,PmZn2Au,0.0
mp-864685,Nd2In8Pd,0.0
mp-865504,YAlAg2,0.0
mp-865533,Ti2ReOs,0.0
mp-865996,YbSbPd2,0.0
mp-866205,TmSbPd2,0.0
mp-867712,LiAgF4,0.9476
mp-8840,Na5InO4,1.774
mp-8846,Ba3Nb5O15,0.0
mp-9167,SrCN2,3.6519
mp-950214,Cd2TeCl2O3,3.3714
mp-972522,SmTmZn2,0.0
mp-972869,Sc2GaPt,0.0
mp-972993,LiSmAu2,0.0
mp-974326,OsRu3,0.0
mp-975848,PrNdMg2,0.0
mp-976341,Nd2ZnAg,0.0
mp-976971,NaPd3,0.0
mp-977374,LiLuPd2,0.0
mp-978083,Pr2ZnAg,0.0
mp-979417,DyYCd2,0.0
mp-982069,YTmIr2,0.0
mp-983430,HfZnPt2,0.0
mp-984744,Ca3Tl,0.0
mp-999124,TbPd,0.0
mp-999539,MnO,0.0
mvc-12653,Ca(NiO2)2,0.0
mvc-13472,CaBiF6,0.047700000000000006
mvc-3748,MgWF5,3.353999999999999
mvc-5096,WO3,1.4306
mp-1008634,Au,0.0
mp-1017529,VCo3,0.0
mp-1018095,BaGaGeH,0.20799999999999902
mp-1019,YNi2,0.0
mp-1029726,Li6IrN4,0.0
mp-1038828,CaZn,0.0
mp-10692,CoGe,0.0
mp-1072104,GeO2,2.0278
mp-1077032,CeZn2,0.0
mp-1078142,DyIn5Co,0.0
mp-1078397,LaBiS2O,1.074399999999999
mp-1078545,ErAlPd,0.0
mp-1078562,SrAgSF,1.253299999999999
mp-1078567,Sr(BiPd)2,0.0
mp-1080575,SrZrO3,3.4687
mp-1084813,NdCuGe2,0.0
mp-1094056,Si7Ge,0.426699999999999
mp-1094601,Li2Mg,0.0
mp-1095124,TaCo3,0.0
mp-1095578,Ga5Ni,0.0
mp-1095584,PRuS,0.6849000000000001
mp-1095683,NbIr,0.0
mp-1101882,NdIr3,0.0
mp-11028,K3Hg11,0.0
mp-1103453,Sr2LiGe3,0.0
mp-1104525,NdAu6,0.0
mp-1104974,Cr5InSe8,0.0
mp-1106025,Bi6Te10Pb,0.31920000000000004
mp-1111658,K2LiTlF6,3.5027
mp-1113042,Cs2KMoCl6,1.6914
mp-1113067,Cs2ScInCl6,2.838
mp-1113461,Cs2NdAgI6,2.7392000000000003
mp-1114462,Rb2NaTlBr6,1.0394
mp-1120780,AuCl,2.2435
mp-11279,TiBe,0.0
mp-1147592,Li6Zn3(PS4)4,2.593899999999999
mp-1147593,Li6Zn3(PS4)4,2.4946
mp-1147594,Li6Zn3(PS4)4,2.585
mp-1147596,Li6Zn3(PS4)4,2.4515000000000002
mp-1147604,Li6Zn3(PS4)4,2.5179
mp-1147606,Li6Zn3(PS4)4,2.6809000000000003
mp-1147610,Li6Zn3(PS4)4,2.678099999999999
mp-1147613,Li6Zn3(PS4)4,2.4574
mp-1147614,Li6Zn3(PS4)4,2.673599999999999
mp-1147616,Li6Zn3(PS4)4,2.4502
mp-1147617,Li6Zn3(PS4)4,2.6821
mp-1147693,Li10Zn(PS4)4,2.6734
mp-1147696,Li10Zn(PS4)4,2.522699999999999
mp-11568,SmTl,0.0
mp-11623,LaInO3,2.7459
mp-11690,Tc2P3,0.0
mp-1176732,LiCuS,1.5798
mp-1178037,Li2CoNi3O8,0.0577
mp-1178380,DyNbO4,3.2628
mp-1179443,SiSe2,2.0597
mp-1179709,RbIn3F10,3.458599999999999
mp-1183246,AlH3,3.2608
mp-1183828,DyErCd2,0.0
mp-1183931,CsRbAu2,1.022199999999999
mp-1184058,GaNi3,0.0
mp-1184116,DyTmCd2,0.0
mp-1184169,ErLuHg2,0.0
mp-1184269,ErMg2,0.0
mp-1184635,Ho2ZnGa,0.0
mp-1184869,HoLuHg2,0.0
mp-1184977,Li2AgBi,0.0
mp-1185071,LaNdMg2,0.0
mp-1185164,HoGePd,0.0
mp-1185210,LaSbTe,0.0246
mp-1185212,LiCd2Ni,0.0
mp-1185300,LiAg3,0.0
mp-1185391,LiPr2Al,0.0
mp-1185422,LiZn2Ag,0.0
mp-1185439,LiYbTl2,0.0
mp-1185935,Mn3Os,0.0
mp-1186604,PmLuAl2,0.0
mp-1186786,PrAs2Au,0.0
mp-1186939,Sc2CoPt,0.0
mp-1186943,Sc2GaPd,0.0
mp-1187002,Sm2MgCd,0.0
mp-1187402,ThAlCu2,0.0
mp-1187521,YbYCd2,0.0
mp-1187573,YbMg,0.0
mp-1187937,YbAlAg2,0.0
mp-1188561,Pr5CuBi3,0.0
mp-1188765,BaErMn2O5,0.1004
mp-1189831,Gd3FeO6,2.5276
mp-1190183,Li2CaTa2O7,2.5022
mp-1190880,HfMn2,0.0
mp-1190968,Y3TaO7,3.4962
mp-1191062,BaReH9,3.8947000000000003
mp-1191110,La3Mn2Sb3O14,0.007299999999999001
mp-11912,NaNd2IrO6,0.0
mp-1191299,XeNO3F,2.2335
mp-1191861,Tb2Si3Rh,0.0
mp-1192489,Rb2ZnBr4,3.6356
mp-1192494,Fe2SiO4,2.8087
mp-1192923,Eu(BiS2)2,0.182699999999999
mp-1193175,Na(RuO2)2,0.0
mp-1193541,Te7RhCl7,1.397799999999999
mp-1193571,Sc6Ga16Rh7,0.0
mp-1194918,Bi4Ir,0.0
mp-1195337,Ir(SeBr3)3,1.651
mp-1196434,K5Fe2Te5,0.190999999999999
mp-1196579,Cs2CuSi5O12,0.19160000000000002
mp-1196710,CsFe5(MoO4)7,1.2707
mp-1197464,Ag2Te4MoO12,2.1478
mp-1198636,Ba5V4(ClO7)2,3.237199999999999
mp-1198863,Hg3(SCl)2,1.8038
mp-1199065,Sm4GaSbS9,2.298
mp-1199182,KCu2SbSe3,0.7211000000000001
mp-1200650,Ho5Sb2Pd,0.0007999999999990001
mp-1201193,TmFe5P3,0.0
mp-1201539,ZnBi4(PO6)2,3.1523
mp-1201852,Nb2O5,1.898699999999999
mp-1202553,Nd6Fe13Bi,0.0
mp-1202645,Y5(Si5Ir2)2,0.0
mp-1203150,Tm6Al43Mo4,0.0
mp-1203805,Gd4B4O11F2,2.9568000000000003
mp-1204867,Ho11(Ni10C)6,0.0
mp-1205400,Ba2NdInTe5,0.666299999999999
mp-1205484,Pr2(CuSn2)3,0.0
mp-1207512,Zn3Au5,0.0
mp-1207538,Zn17Co3,0.0
mp-1207810,Y4MgPt,0.0
mp-1207830,Y(Fe2Ge)2,0.0
mp-1208010,V3(PbO3)4,0.0
mp-1208042,TmAg(WO4)2,3.139799999999999
mp-1208613,Ta10Si2MoSe8,0.0
mp-1208793,SmMg5Sb4,0.0
mp-1208847,Sr2Ti5Al17O38,0.0
mp-1209397,Sn2(PCl8)3,0.0068000000000000005
mp-1209733,SmZr6(PO4)9,3.7105
mp-1210648,Mg2MnGa3,0.0
mp-1211176,Li6AsS5I,1.2963
mp-1211273,LaCrSe2O,0.9672000000000001
mp-1211564,Li(ErGe)4,0.0
mp-1211809,K2Na4Fe2O5,0.496
mp-1213160,CsYb(WO4)2,0.0
mp-1213318,EuUO3,0.0
mp-1214123,Ca(Sb3Os)4,0.0
mp-1214320,BaTi(GeO3)3,3.0082
mp-1215379,Zr4CoNi,0.0
mp-1215480,Zr3NbC4,0.0
mp-1215696,Zn2InCuS4,0.7250999999999991
mp-1215724,ZnAg,0.0
mp-1215743,ZnGaFeO4,0.0
mp-1215816,Zn2InCuSe4,0.5049
mp-1215817,Zr2GaCo3,0.0
mp-1216493,V3Cr3B8,0.0
mp-1216662,U2AsSe,0.0
mp-1216765,V2Co9W,0.0
mp-1216772,V2Co9Mo,0.0
mp-1217056,U7V5Ag3O35,1.0659
mp-1217290,Th4AlGe,0.0
mp-1217618,TbGdAl6,0.0
mp-1217628,Ti12Mn5(PO4)18,0.0
mp-1217635,Tb3SOF5,3.59
mp-1217664,Tb5Co19P12,0.0
mp-1217727,Tb2MnCrO6,0.963499999999999
mp-1217942,TaNbTe4,0.0
mp-1218033,Ta3MoS8,0.0
mp-1218080,Ta4Ga(Te3Se)2,0.0007000000000000001
mp-1218233,Ta6Mn2FeO18,2.291
mp-1218448,SrCa3(PbO4)2,1.9634
mp-1218508,Sr3Tl(FeO4)2,0.0
mp-1218517,Sr4Al6MoO16,3.6313
mp-1218925,SnTe4Pb3,0.42550000000000004
mp-1219136,Sm3DyS4,0.0
mp-1219520,Sc(CuS)3,1.0845
mp-1219536,ReGeAs,0.0
mp-1219645,RbBi4Se7,1.0524
mp-1219714,PrPaO4,2.4285
mp-1219917,PdRhPb4,0.0
mp-1221044,Nd2InCuS5,1.0638
mp-1221142,NaP4(W3O11)4,0.206299999999999
mp-1221415,Na(Ti3Se4)2,0.0
mp-1222106,Mn23(BC)3,0.0
mp-1222209,Mg4FeO5,3.0497
mp-1222754,LaYMg6,0.0
mp-1222870,LaMo6(SeS)4,0.0
mp-1222890,LaFeSi2Rh,0.0
mp-1222910,Lu5Co19P12,0.0
mp-1222917,LaGd3(ClO)4,3.0777
mp-1223111,La4Bi2Pb,0.0
mp-1223223,La2BrClO2,3.865100000000001
mp-1223242,La2Mn3FeSi4,0.0
mp-1223247,La6Fe(SiS7)2,0.0
mp-1223412,LaCeCu12,0.0
mp-1223535,KCd4Ga5S12,1.9773
mp-1223829,Ho4Si3Ge,0.0
mp-1223867,K3I2Br,3.731
mp-1223900,InAgSeS,0.4626
mp-1223957,K4MgCu3F12,0.0
mp-1223973,K7Ti8(PO4)12,0.0
mp-1224129,InCuSnSe4,0.524899999999999
mp-1224199,Ho4Co3,0.0
mp-1224231,In9Ag17,0.0
mp-1224497,K15Si92,0.0
mp-1225299,Eu2SeS,0.0
mp-1225538,Eu2ScNbO7,0.0
mp-1226011,CoSi4Ni3,0.0
mp-1226215,Cs2Hf(WO4)3,3.0199
mp-1226506,CeTh2O6,2.0563
mp-1226530,CsMo2P3O13,2.2656
mp-1226711,CeB4(IrOs)2,0.0
mp-1226762,Ce2ThO6,2.0332
mp-1227056,Ce2CoGe4Ru3,0.0
mp-1227127,CaMgCd,0.0
mp-1227156,CaTbMn2O6,0.0
mp-1227454,Ca6P19Rh30,0.0
mp-1227671,Ca4Al6MoO16,3.933099999999999
mp-1227710,BaSr4Ti5O15,1.8033000000000001
mp-1227816,Ca3Mg2Ni13,0.0
mp-1227915,Ce2Cu11Au,0.0
mp-1227976,Ba6Br2N3Cl,1.1827
mp-1227985,Ba6Br2N3Cl,1.2208
mp-1228272,Ba3UIn2O9,1.4273
mp-1228562,Al3GeW2,0.0
mp-1228808,Bi11(Se4Cl3)3,1.126599999999999
mp-1228891,AlGaAs2,0.9501000000000001
mp-1228970,Al8Zn3CoO16,3.523499999999999
mp-1232397,ZnCu2SiSe4,0.3022
mp-1235796,LiO8,0.0
mp-1237229,ReO3,0.0
mp-1246207,Ca4CrN4,1.123599999999999
mp-1277667,Mg2FeWO6,2.388499999999999
mp-1301405,Co5SbO8,0.0
mp-1302630,Li2TiV3O8,0.9773000000000001
mp-1311636,LiV3Zn2O8,1.027
mp-1314196,Na2FeO3,0.0
mp-139,Sr,0.0
mp-14047,Al2Cd3(SiO4)3,2.955399999999999
mp-14244,Y3Si3Pd2,0.0
mp-14383,KGePO5,3.229199999999999
mp-14765,Ba(Ni5P3)2,0.0
mp-15483,Zn3(AsO4)2,1.9057
mp-1566,SmFe5,0.0
mp-15866,SrV3P4O17,1.8247
mp-16045,Sr(As2Rh3)2,0.0
mp-16057,Er2Cu(GeO3)4,0.718299999999999
mp-1650411,Sr5Fe4MoO15,0.0
mp-16590,Tb4Si2S3O7,2.606499999999999
mp-17268,Lu2Cu(B2O5)2,0.6769000000000001
mp-17427,AgMo3(PO7)2,1.9944000000000002
mp-17689,Ba4Ir3O10,0.0
mp-17729,PrTl(MoO4)2,3.7478
mp-18184,KYbP2O7,0.003
mp-18573,La3ZnNi3,0.0
mp-18884,Na4CrO4,1.8904
mp-19402,V4Ag2O11,1.072299999999999
mp-20633,PbO2,0.0
mp-20859,DyCuSb2,0.0
mp-20980,NaNdTiO4,2.4555
mp-21059,Sr4Fe4O11,0.0
mp-21295,Nd2In,0.0
mp-21390,La2InCuSe5,0.5091
mp-21402,PrCr2Si2C,0.0
mp-25203,VPO5,1.9890999999999992
mp-25946,Sb2P5O16,0.0757
mp-26324,MoP2O7,1.3274
mp-27046,CoPO4,0.663
mp-27401,NaIO4,1.887299999999999
mp-27607,Bi4Se3,0.0037
mp-27790,BaTi5O11,2.6228
mp-28293,SnPCl9,2.4343999999999992
mp-28316,K3LiSi4,1.5223
mp-28397,Sr4Bi6Se13,0.4887
mp-28590,Hg4As2I3,0.6589
mp-28875,Hg2P3Cl,1.1841
mp-28982,Pd(PbCl3)2,1.4313
mp-29045,La5Ti5O17,0.0
mp-29066,Al3Fe2Si3,0.0
mp-29078,Hg4As2Br3,0.7238
mp-29292,B10H13,3.3335
mp-29427,Ta(TeBr3)2,1.2144
mp-29509,Zn(AsO2)2,3.5575
mp-29616,CsCrCl3,0.16189999999999902
mp-29943,H5NO5,3.541
mp-3019,Tl4SnTe3,0.374299999999999
mp-30286,Hg2SeO3,2.1898
mp-30641,Y6Fe23,0.0
mp-30699,SmCu6,0.0
mp-3070,Na2CO3,3.8207
mp-30810,Th2Ni17,0.0
mp-30900,TaBiO4,2.9755000000000003
mp-31191,Sc3Co2Ge3,0.0
mp-31305,Hf(TeCl)6,1.0253
mp-34121,LiSbS2,0.0334
mp-34212,SrRuO3,0.0
mp-34234,Al2NiO4,3.065
mp-34477,LiSmS2,1.921399999999999
mp-4076,VCoSb,0.0
mp-413,UP2,0.0
mp-4279,CaGe2O5,2.710699999999999
mp-4445,Hg3AsO4,0.5785
mp-4630,Li2RuO3,0.0
mp-4917,LaAsO4,4.002499999999999
mp-504265,CuPO4,0.361299999999999
mp-504897,CeP5O14,0.677099999999999
mp-505353,CoAgPO4,1.7464
mp-505628,Cr3IrN,0.0
mp-510713,K3Mn2O8,0.0
mp-5306,Nb4CrS8,0.0
mp-530600,Li14Ti21O48,0.0
mp-531,K4Si23,0.0
mp-531358,Sr17(Ta5S21)2,1.8116999999999992
mp-540740,SrTb2Fe2O7,1.179099999999999
mp-5410,SmCo3B2,0.0
mp-541087,CuAs4(H5O8)2,0.6268
mp-5436,FeCo2Si,0.0
mp-554377,KCr2PbF9,3.0991
mp-554614,Cu3(AsO4)2,0.0
mp-555102,Ni(BO2)2,0.0
mp-555191,La3Si2Cl3O7,3.870199999999999
mp-555199,TlHgAsS3,1.5939
mp-555868,K10MgMo7O27,3.7119
mp-556130,GeXeF10,2.3598
mp-556737,Pr6Ti2S7O6,1.1657
mp-556877,Ba7Ru4Br2O15,0.0
mp-556890,BaNaCr2F9,3.5717
mp-557167,K2Mo7O20,0.0
mp-557230,Na2CrCoF7,2.727099999999999
mp-557264,SiO2,5.4327
mp-5575,GdTaO4,0.26980000000000004
mp-557812,Ti3O,0.0
mp-557835,TlF,3.007
mp-558065,In4(P2O7)3,3.4034
mp-558407,In2Si(AgS3)2,1.4442
mp-558785,Nd6Mo10O39,3.1542
mp-559070,Li2Hg(PO3)4,3.2670999999999992
mp-559081,Na2MnO2,0.268999999999999
mp-559154,Ti4Bi2O11,2.1127
mp-559168,Sb2(KrF4)5,1.169499999999999
mp-559289,YTaO4,4.1309000000000005
mp-559307,Cu3P4(SI)3,1.5138
mp-559594,LaGaSe2O,1.8513000000000002
mp-560530,Nb2Cd2O7,2.1745
mp-561536,NaMgBO3,3.5934
mp-567589,DyAl3,0.0
mp-567747,Co7Mo6,0.0
mp-568338,Sr2GeN2,0.052000000000000005
mp-568404,Li9Al4,0.0
mp-568431,Nd6Fe13Sb,0.0
mp-568654,PrAg2,0.0
mp-568683,La16Al13,0.0
mp-569098,RbNa11(WN3)4,2.175599999999999
mp-569109,MnBiSe2I,0.7614999999999991
mp-569161,K2La6OsI12,0.0
mp-569299,Be(BC)2,0.29199999999999904
mp-569943,K2AgI3,2.5683
mp-570872,CeCo3,0.0
mp-571066,K6Sn25,0.0
mp-571443,SrMgIn3,0.0
mp-571505,Rb2In3,0.06469999999999901
mp-574367,CuAsSe,0.018899999999999
mp-581655,Pr13Cd58,0.0
mp-583252,Mn7(PbO5)3,0.0
mp-641924,Bi2PbS4,1.1329
mp-643397,H8Pd(NCl3)2,1.2323
mp-643907,Zr2FeH5,0.0
mp-647867,La4Mo7O27,3.0976
mp-649605,W25O73,0.0
mp-669473,Cs3Sb2Cl9,2.4583
mp-669564,CsRe6S8Br3,1.5022000000000002
mp-672227,CaZn13,0.0
mp-676586,Na(VS2)2,0.0
mp-677039,Li5TiAs3,0.5862
mp-680300,Mo3N2Cl11,0.15910000000000002
mp-6810,K2Ti(SiO3)3,3.2108
mp-683982,RuOF4,0.3321
mp-684006,Ag3TeIO4,0.19640000000000002
mp-684638,Al2S3,1.6714
mp-685216,Nb12TlTe16,0.0
mp-685317,Ca5Cu19As10,0.0
mp-696951,Fe3H4(OF4)2,1.124
mp-703342,Ti2P2H4O11,2.8117
mp-703350,La2(GeO3)3,3.118699999999999
mp-704637,Nb12WO33,1.9071
mp-706664,B10H13,3.409
mp-721686,SnH4(ClO)2,3.8718
mp-752,Mn15Si26,0.0
mp-752635,Li(CoO2)3,0.0
mp-752798,CeTh2O6,2.042
mp-753014,VO2F,3.0636
mp-753291,Li2Mn(PO4)2,0.9873000000000001
mp-753595,Mg3Fe2O5,2.1937
mp-753616,Li4VCr3O8,1.916399999999999
mp-753672,NaFePO4,3.7046
mp-754318,MnZnO3,1.7281
mp-754748,CoO2,1.1551
mp-754961,Hg2W2O7,1.9785
mp-755317,Y2TeO6,3.1178
mp-755557,Mg(NiO2)2,0.2858
mp-755584,CrPtO2,0.0
mp-755723,Er2Pb2O7,0.9283999999999991
mp-756505,Cs3ScO3,2.7287
mp-756664,LiFeBO3,2.897299999999999
mp-757347,Li13Ni15O28,0.0
mp-758062,Li2NbCo3O8,0.7397
mp-758562,LiFeSiO4,2.5156
mp-759405,Bi3O2F5,3.2897
mp-759867,VF4,2.3143000000000002
mp-759966,Ti2Mn(PO4)3,0.157899999999999
mp-760203,Na7(NiO2)10,0.0
mp-760312,VF5,2.9966
mp-760908,NaV2O5,0.9298000000000001
mp-761042,NaCu(PO3)3,0.595599999999999
mp-765586,Ti15VO24,0.0
mp-765679,Na5(NiO2)6,0.0
mp-766417,Ba10Cu5O17,0.0
mp-766960,Li11Fe12(BO3)12,1.016299999999999
mp-767438,YFeGe2O7,0.0
mp-768510,Ba4Sn3O10,1.1901
mp-769246,Sr4Ta2O9,3.6451000000000002
mp-771163,CsY3O5,3.8015
mp-771950,K2MnO4,0.628
mp-772024,Ba3LaBr9,3.031
mp-772823,Y2HfO5,3.8598
mp-773911,Ti2Sn(PO4)3,0.0
mp-774662,Li3Mn5Cr3O16,1.3315000000000001
mp-776107,Li2FeF5,3.8403
mp-776214,Hf2N2O,2.0381
mp-776226,Hf2N2O,2.027299999999999
mp-776314,Zr2N2O,1.6107
mp-776337,Zr2N2O,1.7118000000000002
mp-777333,V2O3F,1.1008
mp-779519,Ba4Hf3O10,3.7256
mp-780234,Hf2N2O,2.15
mp-780585,Ti(FeO2)2,2.0259
mp-8469,Li8IrO6,0.0
mp-849394,Li2MnSiO4,2.964299999999999
mp-850971,LiMnBO3,2.9262
mp-861498,Pr2HgPb,0.0
mp-861618,BaBiBS4,1.94
mp-862619,LiErIn2,0.0
mp-862722,LiHoAu2,0.0
mp-862775,LiInRh2,0.0
mp-864768,LiSnIr2,0.0
mp-864935,MgAu3,0.0
mp-865365,Tm2NiIr,0.0
mp-865750,Li2TeO3,3.3528000000000002
mp-8743,HoCoSi2,0.0
mp-9472,LiAg2Ge,0.0
mp-950995,Li6PS5I,2.2742
mp-961678,ScCoTe,0.8693999999999991
mp-972907,Sc2AlAg,0.0
mp-972949,LaSmZn2,0.0
mp-973276,HoLuCd2,0.0
mp-973540,LuAlB4,0.0
mp-973957,La2ZnAg,0.0
mp-973986,Ho,0.0
mp-976412,Li3Zn,0.0
mp-977394,TbAlAg2,0.0
mp-977584,Zr2ZnAg2F14,0.32130000000000003
mp-978538,SmSnPd2,0.0
mp-978625,Sm2MgTl,0.0
mp-979012,Tm2AlZn,0.0
mp-980108,Sm2MgIrO6,0.0
mp-981249,Y3Tm,0.0
mp-989695,Cu,0.0
mp-996980,AgAuO2,0.027000000000000003
mvc-942,CaMn3(P2O7)2,3.7264
mp-1003549,LiMn16O32,0.0
mp-1007652,InAs,0.0
mp-1007881,FeB,0.0
mp-1009083,MgSnP2,1.2147000000000001
mp-1019723,CsZn4(BO3)3,2.833199999999999
mp-1025195,Nb2VSe4,0.0
mp-1025321,Rb2Cr(BrCl)2,0.0
mp-1030155,Te8Mo3W,1.0257
mp-1030331,Te8Mo3W,0.7336
mp-10359,Zr(CoGe)6,0.0
mp-1066856,AgO,0.0
mp-1072391,Pr2SiRh3,0.0
mp-10731,Ba2PrSbO6,3.6872
mp-1076090,BaSr7(Fe2O5)4,0.7341000000000001
mp-1076510,K5Na3Ta8O24,2.1523
mp-1078167,PrIn5Co,0.0
mp-1078188,LiOsO3,0.0
mp-1078909,CdCu2GeTe4,0.0
mp-1079462,Sm(GePt)2,0.0
mp-1080051,Zr6Ga2Ni,0.0
mp-1080568,PrNiSb2,0.0
mp-1087228,Er2NiAs2,0.0
mp-1091387,CaHg3,0.0
mp-1094598,Li3Mg,0.0
mp-1095560,Zr3Al3Ni3H2,0.0
mp-10985,RbCu3S2,0.47200000000000003
mp-1100430,LiZnSb,0.6153999999999991
mp-1101950,SbPtSe,0.0
mp-1102348,NbRh,0.0
mp-1102576,PrIn4Ni,0.0
mp-1103650,RbCu2I3,1.9946000000000002
mp-1104378,Sr(AlS2)2,3.8857
mp-1104570,Yb(In2Au)2,0.0
mp-1105044,Nb6Ni7,0.0
mp-1106127,Ba2DyInSe5,1.1264
mp-1106294,La(TmS2)3,1.0688
mp-1106332,Cs3FeBr5,0.0
mp-1111985,K2InAgCl6,1.3083
mp-1113063,Cs2YInBr6,3.224199999999999
mp-1114441,Rb2NaGdCl6,3.056499999999999
mp-11415,Sm9Ga4,0.0
mp-1147603,Li6Zn3(PS4)4,2.6073
mp-1147633,LiCu2BiO4,0.0
mp-1147681,Li10Zn(PS4)4,2.501799999999999
mp-1147684,Li10Zn(PS4)4,2.5761000000000003
mp-1147685,Li10Zn(PS4)4,2.5073
mp-1147687,Li10Zn(PS4)4,2.5782
mp-1176513,Na3NO3,0.983599999999999
mp-1176672,LiMn3O6,0.593799999999999
mp-1177028,Li7Mn4(P2O7)4,0.0
mp-1177074,Li7Mn4(P2O7)4,0.141399999999999
mp-1177997,Li2Fe3BiO8,0.47839999999999905
mp-1178283,Gd4Ga2O9,3.1923
mp-1178463,Cs4SiO4,2.4556
mp-1179724,RbLi2(H2N)3,1.7776
mp-1180022,P2W9O31,0.0
mp-1182186,BaYMn2O5,0.10220000000000001
mp-1183493,Ca2PdPt,0.0
mp-1183575,CaMg,0.0
mp-1183638,CaGdZn2,0.0
mp-1183792,DyLuHg2,0.0
mp-1184005,GaCuNi2,0.0
mp-1184030,GaCuPd2,0.0
mp-1184057,CuSnPd2,0.0
mp-1184176,DyScS3,1.773699999999999
mp-1184291,Eu2ZnSn,0.0
mp-1184568,Hf2ZnTc,0.0
mp-1184832,HoSnAu2,0.0
mp-1184928,IF7,1.8034
mp-1185398,LiPm2Pb,0.0
mp-1185428,LiTi2Ir,0.0
mp-1185478,Lu3In,0.0
mp-1185506,LuScHg2,0.0
mp-1186279,Nd2InAg,0.0
mp-1186313,NdHoZn2,0.0
mp-1186328,NdSmMg2,0.0
mp-1186610,PmNdMg2,0.0
mp-1186626,PmPrMg2,0.0
mp-1187456,ThMgRh2,0.0
mp-1187486,Tl3Sb,0.0
mp-1187531,TiZn3,0.0
mp-1187617,YbNdMg2,0.0
mp-1187635,Tm3Al,0.0
mp-1187726,ThInRu2,0.0
mp-1187751,Y2PdRh,0.0
mp-1187929,Yb2ZnIn,0.0
mp-1189834,Lu3Pt,0.0
mp-1190104,DyGePd,0.0
mp-1190661,V3Ga2N,0.0
mp-1190698,KBaSbSe3,1.8064
mp-1190935,K2CuP2O7,0.046000000000000006
mp-1190974,SiAg2S3,1.749499999999999
mp-1191083,HfMo2,0.0