material_id,pretty_formula,band_gap
mp-1190841,Hf2Co,0.0
mp-1191051,UFeB4,0.0
mp-1191138,LaGaBi2,0.0
mp-1191300,Tb3OsO7,0.0
mp-1191729,LiHo(WO4)2,3.8323
mp-1192011,Sr3(CoO3)2,1.3719000000000001
mp-1192089,KVOF3,0.018399999999999
mp-1192470,Pr6Mg23C,0.0
mp-1192585,La6Mg23Sb,0.0
mp-1192952,LaBeCu12,0.0
mp-1193334,Hf9CoRe4,0.0
mp-1193515,Co21(GeB3)2,0.0
mp-1193748,Cs3AlTe3,2.1643
mp-1194135,Cs3Er2I9,2.8905000000000003
mp-1194481,Sr3Sn3Au8,0.0
mp-1194965,Li2Th(AsO4)2,3.9463
mp-1195471,K2Ta4O11,3.3869
mp-1196334,Ba2U(AsO5)2,2.2615
mp-1196459,Al2Sb5(Se2Br3)3,1.801899999999999
mp-1196559,SmV2IO9,2.5048
mp-1196663,La4InSbS9,2.2196
mp-1196732,RbH2(IO3)3,3.246299999999999
mp-1196981,Sc57Pt13,0.1028
mp-1197467,Cs5Th(PS4)3,2.0219
mp-1197639,Sm(Cd10Ni)2,0.0
mp-1198371,NdCO4,0.10710000000000001
mp-1198672,OsSeS3Cl4,1.4304000000000001
mp-1198724,P,1.9259
mp-1199190,Ba4Bi(IrO4)3,0.0
mp-11992,LiLa2IrO6,0.0
mp-1199216,Cs2ZnBi2S5,1.7350999999999992
mp-1199625,Hg3HN2O7,2.3406000000000002
mp-1199735,CsY2CuTe4,0.687299999999999
mp-1200242,GdAgS2,1.087499999999999
mp-1200754,Nd4In21Pd10,0.0
mp-1201130,EuNb2O6,0.20469999999999902
mp-1202364,MnSeO3,3.0984
mp-1202505,Cs2Re(ClO)3,2.3472
mp-1202549,Cs4Os2Cl10O,0.8307
mp-1202692,Eu5B3ClO9,0.33840000000000003
mp-1203541,KGa(SeO3)2,3.2196
mp-1203875,Zn2Te15(H3N)8,0.523899999999999
mp-12040,K5FeO4,1.9722
mp-1204182,Ho2Re3Si5,0.0
mp-1204525,K2Sn(S2O7)3,3.4583
mp-1204728,Tm10Mn13C18,0.0
mp-1205144,Mg3(Al9W)2,0.026699999999999002
mp-1205936,HoMgPd,0.0
mp-1205941,LiTmGe,0.0
mp-1205987,Dy2MgCu2,0.0
mp-1205995,HoMgGa,0.0
mp-1206000,TmMgTl,0.0
mp-1206004,DyU2S3O2,0.0
mp-1206042,Lu6MnSb2,0.0
mp-1206292,Ba2ErUO6,0.8925999999999991
mp-1206697,EuNiP,0.0
mp-1206809,DyMgTl,0.0
mp-1206971,Tm2FeSi2,0.0
mp-1208053,U2Nb3Si4,0.0
mp-1208729,Y15(Ni4P3)7,0.0
mp-1208898,SmAl3Ni,0.0
mp-1209138,RbYb(WO4)2,0.0
mp-1209328,PrSI,2.0828
mp-1209334,RbHo(WO4)2,3.384699999999999
mp-1209371,RbDy(MoO4)2,3.6098
mp-1210069,NaDy(Pd3O4)2,0.062400000000000004
mp-1210360,Na3Sb3(PO7)2,2.1599
mp-12104,NbSi2,0.0
mp-1211464,LaSI,2.2046
mp-1211948,La2(Ga3Ru)3,0.0
mp-1212406,Ho2(Ga3Rh)3,0.0
mp-1212443,Hf6Be15Pd8,0.0
mp-1212812,Dy4C5,0.0
mp-1212830,Dy7(TePd)2,0.0
mp-1212834,GdNiPb,0.0
mp-1213036,ErGa3Os,0.0
mp-1213063,CsTbMnSe3,0.5116
mp-1213146,Dy(Al5Re)2,0.0
mp-1213246,Eu2NiRuO6,0.0
mp-1213333,Gd2Hf2(MoO4)7,3.094
mp-1213337,Gd3ScS6,0.451399999999999
mp-1213412,Gd4Si2Ni2Bi,0.0
mp-1214556,Ce3CoGe2,0.0
mp-1214829,AlNiAg2F7,2.005
mp-1215316,ZrMn6GaSn5,0.0
mp-1215693,YbGd(PO4)2,0.0
mp-1217144,Ti4AlGe7,0.0
mp-1217693,Tb2Co3Ni,0.0
mp-1218382,Sr4Bi2O,0.9357999999999991
mp-1219054,SmGa2Ni3,0.0
mp-1219444,Sm8Ga21Ru11,0.0
mp-1219738,PrSm3S4,0.0
mp-1220251,Nd4Mn(NiO4)3,0.346099999999999
mp-1220837,NaHSeO3,4.048599999999999
mp-1220860,Na5EuTaAs4,0.24329999999999902
mp-1221080,NaCeTi2O6,0.0
mp-1221214,Na4Eu2SiAs4,0.0
mp-1221780,Mn3FeAs4,0.0
mp-1221985,MgCdAg2,0.0
mp-1222096,Mn2GaCo4Ge,0.0
mp-1222266,Lu3S4,0.0
mp-1222850,LaSmCr2O6,2.5242
mp-1222960,LaCuNi4,0.0
mp-1223321,KTaSi2O7,3.6235
mp-1223335,La2FeNiO6,0.0
mp-1224402,HfAlMo,0.0
mp-1225213,Gd8MgAlNi2,0.0
mp-1225544,ErCoRu,0.0
mp-1226351,CsMn2(PO3)6,0.0
mp-1226382,Cr2CdSeS3,0.400099999999999
mp-1227073,CdCo3(PO3)8,2.5915
mp-1227341,Ca2ScP3Pt7,0.0
mp-1227383,Ca2AlZn16,0.0
mp-1227943,CsTa4P3S19,1.1991
mp-1228681,Ba7Sr5(MoN4)4,2.0734999999999992
mp-12381,PrSnRh,0.0
mp-1246715,Ba2ReN3,0.0
mp-12520,SrNi2Ge,0.0
mp-12546,TiCu3,0.0
mp-129,Mo,0.0
mp-12922,NdPIr,0.0
mp-13026,YbZnPt,0.0
mp-13093,La3Ni2Sn7,0.0
mp-13384,ErAg(PSe3)2,1.8335
mp-13933,Ba2HoReO6,0.0
mp-14377,KTaGeO5,3.899
mp-14384,Ba3Ho(BO3)3,3.8221
mp-1464,Nd5Ge3,0.0
mp-14643,Er2Te3,0.8286999999999991
mp-15108,RbSnAsO5,2.5585
mp-15698,Sr5As3,0.0
mp-1584,YbIr2,0.0
mp-15886,Na2US3,0.0
mp-16032,Pr2TeO2,1.693
mp-16092,Tm3Co29(Si2B5)2,0.0
mp-16802,BaMo2(P2O7)2,3.9912
mp-17217,Tl3GeTe3,0.6374000000000001
mp-17918,Ba2SnS3F2,2.3078
mp-18797,Yb2V2O7,0.07199999999999901
mp-18869,Na4Mn2O5,0.6534
mp-19115,CaFeO3,0.0
mp-19148,K2Mn2O3,0.0
mp-19313,Zn(FeO2)2,1.6943000000000001
mp-19774,Eu(CdSb)2,0.0
mp-19789,Mn(BW)2,0.0
mp-19867,NpAs2,0.0
mp-1989,Ta5Si3,0.0
mp-20241,Mg4P6Rh7,0.0
mp-20258,GdIn3,0.0
mp-20288,CeCO3F,0.079899999999999
mp-20599,PdPb2,0.0
mp-206,Tb5Si3,0.0
mp-20619,SbRh,0.0
mp-20628,NaIn,0.0
mp-20663,TmCuPb,0.0
mp-20685,Cr3Ge,0.0
mp-20743,LaInPd2,0.0
mp-20965,GdCd2,0.0
mp-20979,TmMgIn,0.0
mp-21003,Y2ReC2,0.0
mp-21044,NdGeRh,0.0
mp-21230,GdCoB4,0.0
mp-21245,CePt,0.0
mp-21256,Mn7C3,0.0
mp-21290,HoInPt,0.0
mp-21347,CoBMo,0.0
mp-21364,HoCuAs2,0.0
mp-2151,Mg17Al12,0.0
mp-21838,Ce(SeO4)2,1.2850000000000001
mp-21911,PRu2,0.0
mp-22417,LiNiPO4,3.4518
mp-22419,NdSnPd,0.0
mp-22447,Zr3P,0.0
mp-22471,Nd2NiB10,0.0
mp-22854,Pr2I5,0.133599999999999
mp-23356,Bi4B2O9,3.0542
mp-2337,HfCo2,0.0
mp-23533,K2OsCl6,0.0
mp-24151,DyH2,0.0
mp-2468,ErHg,0.0
mp-24722,HRh,0.0
mp-2502,TmCd,0.0
mp-2563,CeSe,0.0
mp-2585,Sr5Sb3,0.0
mp-2607,UGe3,0.0
mp-2647,Al2Au,0.0
mp-27787,NbPCl10,2.286699999999999
mp-27866,MoS2Cl3,1.442699999999999
mp-2790,Ni12P5,0.0
mp-28168,Th6CBr14,0.6551
mp-2828,HfN,0.0
mp-28458,ErSeI,2.3094
mp-28463,LiNb3Cl8,0.8813000000000001
mp-28998,Sn5(BIr3)2,0.0
mp-29011,BiTePd,0.0
mp-29391,SbCl3F2,1.8445
mp-29602,K2ZrTe3,0.41500000000000004
mp-29936,Rb2PdI6,1.1296
mp-30123,Hg2SeO5,0.7264
mp-30747,Zn11Ir2,0.0
mp-30855,UPt3,0.0
mp-30888,ZrZn22,0.0
mp-30974,CsWCl6,0.0
mp-30990,K6Si2O7,3.5108
mp-31079,Ce3(Al3Ru)4,0.0
mp-31087,Tb2Pd2Pb,0.0
mp-31189,DyBe13,0.0
mp-31237,CuAsF7,0.0194
mp-318,SrIr2,0.0
mp-3186,TbB2Ru3,0.0
mp-3202,BaNi9P5,0.0
mp-34278,K(WO3)6,0.0
mp-3435,Nd3Cu3Sb4,0.3824
mp-348,TmPd,0.0
mp-35388,LiSmSe2,1.5106000000000002
mp-37695,Ag7NO11,0.0
mp-3909,ZrAlCo2,0.0
mp-4022,Zr2CoSi2,0.0
mp-4053,YbSnPd2,0.0
mp-4425,Ta2Pt3Se8,0.6778999999999991
mp-4476,HoCuSi,0.0
mp-4593,Mn3AlC,0.0
mp-4886,NdCuO2,2.6130999999999993
mp-5040,CaTe2O5,3.4006
mp-504353,LiSb(PO3)4,4.6591000000000005
mp-505172,NaZrCuSe3,0.29700000000000004
mp-505278,Zr9(NiP2)2,0.0
mp-505390,Ba2ReO5,0.0
mp-540877,La3InS6,1.1154
mp-541806,Rb4Nb11O30,0.0
mp-541823,TlCr5S8,0.210099999999999
mp-542199,Ag4HgGe2S7,0.47529999999999906
mp-542208,Ba3NaOs2O9,0.0
mp-542568,EuAg5,0.0
mp-542839,TlSbAu,0.0
mp-5459,Nd2TeO2,1.6053000000000002
mp-554508,KYP2O7,5.0821
mp-554714,Np2O5,0.0
mp-555300,Na2Zn3(SiO4)2,2.7963
mp-555420,NaLiTi3O7,2.6233
mp-555609,Sr9Zn4(CuO7)2,1.804999999999999
mp-555741,RbAu(SO4)2,1.7218
mp-555896,Pr9(SbO)5,0.0
mp-556308,CrHg(PbO3)2,2.0918
mp-556331,Sr4Pt4PbO11,0.5669999999999991
mp-556409,Ba7Ca2Mn5O20,0.9469000000000001
mp-557101,Sn(S4I)4,1.7979
mp-557963,Cr4Si2Br2O7,0.0
mp-557992,InTeClO3,3.1451000000000002
mp-558217,CsAg(NO3)2,2.67
mp-558241,TaTl2AgS4,2.0548
mp-558360,AlAs3S5Cl4,2.3221
mp-558595,Ba6Ru3(ClO6)2,0.0
mp-559071,Ag2Bi2S3Cl2,1.858299999999999
mp-559706,Li3Gd(BO3)2,3.1614
mp-559968,Na2NbAsO6,3.155399999999999
mp-560642,Na3SbP2O9,2.6241
mp-560918,Ba2V5(PO6)4,1.0481
mp-561512,K4Cu4Cl10O,0.0
mp-561751,CsErS2,2.2595
mp-562833,Co5Se4(BrO6)2,2.556599999999999
mp-567143,Lu14(InCo)3,0.0
mp-567291,Gd3OsO7,0.13010000000000002
mp-567395,Li15Au4,0.0
mp-567398,Sr3MgGeN4,1.4132
mp-567727,Pr2Co2I,0.0
mp-568095,Yb(PRu)2,0.0
mp-568336,Lu2Si5Ir3,0.0
mp-568509,Er(CoB)2,0.0
mp-568636,TiCr2,0.0
mp-569275,Nd2WC2,0.0
mp-569879,Cs2Ta6PbCl18,1.4762
mp-570245,Ba2GaGeN,0.0
mp-570504,Yb11InSb9,0.669299999999999
mp-570768,Dy4CdRh,0.0
mp-570890,SmBiRh,0.0
mp-570955,Na2UCl6,0.0
mp-571230,Dy4InRh,0.0
mp-573422,CsCr3O8,1.9784000000000002
mp-579058,Cs4Tc6S13,0.931299999999999
mp-622848,Sm2Ga9Ru5,0.0
mp-623089,CaCdPb,0.0
mp-623670,Ce5C2Br9,0.26269999999999905
mp-626787,VHO2,0.0
mp-628742,Cs5Sb8,0.5848
mp-6301,Ba3CeRu2O9,0.0
mp-643409,Ba4Y(CuO3)3,0.0
mp-643451,BaMg2H8Ru,2.1511
mp-644246,EuH3Pd,0.0
mp-645701,Er17(TeRu2)3,0.0
mp-645717,Co3TeO6,1.0657
mp-654051,Nb6SI9,0.0
mp-655360,UI4,0.2599
mp-6598,K2Cu(PO3)4,0.9093
mp-6624,Tb2Fe2Si2C,0.0
mp-672215,Gd(PRu)2,0.0
mp-672252,LiEuPS4,0.448399999999999
mp-672696,Hf2Nb3Ge4,0.0
mp-673,HoNi2,0.0
mp-6732,La2MgIrO6,0.0
mp-675770,Nd3U2O10,0.20749999999999902
mp-676130,TlSnF3,0.022399999999999
mp-680059,Re3(SCl)7,1.6778
mp-680159,CsTa6PbCl18,0.0
mp-680259,TaTe4,0.0
mp-680413,Rb3As7,1.456999999999999
mp-680426,Pu31Pt20,0.0
mp-680469,La10Ga5Cl4,0.0
mp-684555,USe2,0.0
mp-7015,CsCeS2,0.030999999999999004
mp-720509,Li10Si(PS6)2,2.5623
mp-744259,Ca3Mn2(GeO4)3,1.0177
mp-753945,ClOF3,3.6469
mp-755635,Ho2Pt2O7,1.5941
mp-760318,Na5FeO4,1.9914
mp-764879,V4(OF3)3,1.448
mp-768762,Ho2TeO6,3.028699999999999
mp-768820,Li3Bi(BO3)2,3.5155000000000003
mp-772900,Sm2TeO6,3.034699999999999
mp-773920,Cr5O12,1.8226
mp-778877,Li5InO4,2.4721
mp-861624,LiLaHg2,0.0
mp-861966,AcHgAu2,0.0
mp-862473,Sc2AgRu,0.0
mp-862632,LiCa2Al,0.0
mp-862786,Ac2CuGe,0.0
mp-862851,PaI3,0.0
mp-862852,PaNi3,0.0
mp-862863,Pa3Te,0.0
mp-862920,PmIn3,0.0
mp-862927,LiPmHg2,0.0
mp-862937,PmMgZn2,0.0
mp-864620,CaSmCd2,0.0
mp-865183,MgGaAg2,0.0
mp-865336,Lu2OsPd,0.0
mp-865444,LiSc2Pt,0.0
mp-865671,Y2ZnIn,0.0
mp-865678,TiMn2V,0.0
mp-865778,Lu5Rh3,0.0
mp-865828,YbPaRu2,0.0
mp-865861,LuMgAu2,0.0
mp-865894,YbPmAu2,0.0
mp-865919,MgAlAg2,0.0
mp-865937,KNpAgS3,0.0
mp-866085,Tm2IrRh,0.0
mp-866122,Tm2RuRh,0.0
mp-866169,KTl2Bi,0.0
mp-866212,Yb2AgSn,0.0
mp-866224,Be2NiPt,0.0
mp-867122,Ac2CuSi,0.0
mp-867174,SrLi2Pb,0.0
mp-867219,Sr2GaGeN,0.036099999999999
mp-867243,Sc2ZnOs,0.0
mp-867371,K2Y4Cu4Se9,0.7913999999999991
mp-867815,AcGa3,0.0
mp-8717,Rb2MnSe2,0.0
mp-8900,K2VAgS4,1.326699999999999
mp-9339,NbP,0.0
mp-9692,K2GeSe3,1.7321
mp-9703,K2LiGaAs2,0.7546
mp-971844,Tm6GaCo2,0.0
mp-972631,Zr2Co12P7,0.0
mp-973767,PmBi3,0.0
mp-973878,Lu3Ga5Ni,0.0
mp-9770,Ag8GeS6,0.6087
mp-978098,HoMnB4,0.0
mp-978662,Sc6Al16Ir7,0.0
mp-982045,YbB4Ru,0.0
mp-984052,Ba(LuS2)2,1.7447
mp-990,HoAu2,0.0
mp-996162,Nb2AlC,0.0
mp-9977,Er2FeC4,0.0
mp-998746,TlGeBr3,2.2918
mvc-16026,Ca(TiS2)8,0.0
mvc-9921,MgCr2O4,1.156399999999999
mp-10010,Al(CoSi)2,0.0
mp-10047,Ca5As3,0.0
mp-10089,Ba5Sb4,0.27090000000000003
mp-10098,YGeAu,0.0
mp-10113,ScBIr3,0.0
mp-1018122,Tm,0.0
mp-1018133,LiHPd,0.0
mp-1025033,LuInCo4,0.0
mp-1025189,Tb2Re2Si2C,0.0
mp-1025250,RhF6,0.8822999999999991
mp-1025393,TmSi2Ni,0.0
mp-10430,Nb5(NiP)4,0.0
mp-10611,La3PbC,0.0
mp-1068908,Ce(GeAu)2,0.0
mp-1069105,Co(BMo)2,0.0
mp-1069160,U2RuC2,0.0
mp-1070580,Al3Ru2,0.0
mp-1071889,ThGeSe,0.0
mp-1076916,GdBiPd,0.0
mp-1077209,TmCu2,0.0
mp-1078064,Ca(CdAu2)2,0.0
mp-1078261,Ho2Ni2Sn,0.0
mp-1078829,Gd2Cl3,0.08860000000000001
mp-1079585,Nb2N,0.0
mp-1079696,USnRh,0.0
mp-1079966,CrNiP,0.0
mp-1080026,Ce(SnPd)2,0.0
mp-1080037,Th(SiIr)2,0.0
mp-1080386,PrSiPt,0.0
mp-1080496,GdInAu,0.0
mp-1080773,Pr(AsRh)2,0.0
mp-1088,YbGa4,0.0
mp-1095270,Na5NpO6,1.3882
mp-1095371,LiYbSb,0.745599999999999
mp-1095601,YbCo3,0.0
mp-1101476,Pr(CuO2)2,0.0
mp-1102138,TiCoP,0.0
mp-1102146,CsDyZnSe3,2.154099999999999
mp-1102532,NbGeRh,0.0
mp-1102901,NdNiP,0.0
mp-1103319,DyAlPt,0.0
mp-1104316,CeSbPt5,0.0
mp-1104585,HoB12,0.0
mp-1105102,Sm3GaCo3,0.0
mp-1105906,Lu6GaNi2,0.0
mp-1106020,Zr5SiSn3,0.0
mp-1106068,LaCr4(CuO4)3,0.2252
mp-1106170,Gd3Pt,0.0
mp-11124,CsLaHgSe3,1.4545
mp-1112759,Cs2KInCl6,3.6013
mp-1120789,K6Sn2S7,2.1268
mp-11463,LaHg2,0.0
mp-11494,LuPb3,0.0
mp-1177857,Li2Ti2Sb2O,0.0
mp-1181462,DyAgSe2,1.6971999999999992
mp-1181942,Eu(GaS2)2,0.29000000000000004
mp-1183055,AcHgTe2,0.0
mp-1183416,BeCrFe2,0.0
mp-1183789,DyLuTl2,0.0
mp-1183804,DyErTl2,0.0
mp-1184276,FeTc2Ge,0.0
mp-1184360,ErLuZn2,0.0
mp-1184689,Ho2NiRu,0.0
mp-1184846,HoThRu2,0.0
mp-1185038,LaSmTl2,0.0
mp-1185076,LaHoIn2,0.0
mp-1185638,Mg149Te,0.1529
mp-1186698,PmPrIn2,0.0
mp-1186793,Pu2SnHg,0.0
mp-1186888,RbPuO3,0.0
mp-1187000,Sm2GaAg,0.0
mp-1187073,Sr,0.0
mp-1187470,TiCrTc2,0.0
mp-1187984,Zr2FeTc,0.0
mp-1188020,Zr2TcNi,0.0
mp-1188091,Ce2Ge5Ir3,0.0
mp-1188476,Ho3Pt,0.0
mp-1189045,PrSiPd2,0.0
mp-1189075,Zr5GeSb3,0.0
mp-1189298,YbB4,0.0
mp-1189420,TbGePd,0.0
mp-1189819,Dy3Ge3Ru2,0.0
mp-1190391,Zr5InPb3,0.0
mp-1190864,BaAu2(SO4)4,1.7936
mp-1190997,Na3TiF8,1.273399999999999
mp-1191117,Gd3SbO7,2.4593
mp-1192190,Gd3AlVS7,0.0
mp-1192742,Ce6Mg23C,0.0
mp-1193389,Co(SbO2)2,0.0
mp-1193893,Ca5Ni17Ge8,0.0
mp-1193908,V2(Co7B2)3,0.0
mp-1193989,Sr(TbS2)2,1.8128000000000002
mp-1194732,Ba2As2O7,3.3061
mp-1195020,PrTl(PSe3)2,1.8202
mp-1195032,BiTeNO6,2.8123
mp-1195087,Tl4PbSe3,0.273
mp-1195195,CeTl(PSe3)2,0.0
mp-1195481,HgAs2Xe5F22,2.1803
mp-1196525,Sm5Rh4,0.0
mp-1196590,Lu11Ge10,0.0
mp-1196950,TePb3Cl4O3,3.2729
mp-1197539,K3AsSe4,1.113
mp-1197997,Ho5Ir3,0.0
mp-1198058,Ba6Y2Fe4O15,2.5563000000000002
mp-1198316,Gd3Si2BO10,2.807
mp-1198824,Er10Mn13C18,0.0
mp-1198939,Tm5(Ge5Os2)2,0.0
mp-1198956,Nd2ThS5,1.413599999999999
mp-1199103,U(Al10Cr)2,0.0
mp-1200532,Gd3InS6,0.9636000000000001
mp-1200708,Sc44Ir7,0.0
mp-1201580,Yb5Ni19P12,0.0
mp-1201654,CuPHO4,0.7082
mp-1201692,LiFe(Se2O5)2,2.0707
mp-1201735,La21Mn8Sn7C12,0.0
mp-1202453,Ba8U3(HgS6)3,0.0
mp-1203678,La3As2BrO7,3.1167
mp-1204296,BaMn3(PO4)3,0.0
mp-1204392,TiMnGe2,0.0
mp-1204742,Nd2H6Se7O20,3.5475000000000003
mp-1205030,Sm5(Sn5Rh2)2,0.0
mp-1205446,Hg8Br3O4,0.6139
mp-1205516,Er2MgNi2,0.0
mp-1205551,PrSiRu2C,0.0
mp-1205696,Cs2NaCrCl6,1.3791
mp-1205763,DyMgGa,0.0
mp-1206017,ThAlCo,0.0
mp-1206614,Dy2Co2I,0.0
mp-1207122,CeSi3Pt,0.0
mp-1207395,ZrHg3(SBr3)2,1.8558999999999992
mp-1207426,Zr6Zn23Si,0.0
mp-1207428,ZrNiAs,0.0
mp-1207461,Zr6PI14,0.0
mp-1207525,YbNiAs,0.0
mp-12076,Tm(FeB)2,0.0
mp-1207889,WI2,1.957799999999999
mp-1207939,Yb10Ni28As19,0.0
mp-1208263,TmNi3Ge2,0.0
mp-1208409,Ta3CoS6,0.0
mp-1208501,Tb6Ti4Al43,0.0
mp-1208662,SrUI6,0.292699999999999
mp-1208712,SrCoF5,1.8786
mp-1208891,Sm2Si5Pt3,0.0
mp-1209157,RbTm(WO4)2,3.29
mp-1209995,RbZr6BCl15,0.0026000000000000003
mp-1210483,Na2CoNiF7,1.0415
mp-1210494,Pr23Cd4Ni7,0.0
mp-1210524,Lu5SbPt2,0.06949999999999901
mp-1211457,La3SiCl3,0.0
mp-1211538,KNdTiO4,2.37
mp-1211556,KHo(MoO4)2,3.5799000000000003
mp-1211901,KLaTiO4,2.360999999999999
mp-1212017,K2LaI5,2.7532
mp-1212266,K2Th(NO3)6,3.5364
mp-1212366,Ho(ZnP)3,0.403099999999999
mp-1213152,Er3Ga2Ge3,0.0
mp-1213202,Er5(ReO6)2,0.0
mp-1213411,Eu3Ga5O12,0.035399999999999
mp-1213648,CsTmMnSe3,0.5037
mp-1213669,Er25Ni49P33,0.0
mp-1214622,Ba2SmTaO6,3.3704
mp-1215883,YbPr3Co34,0.0
mp-1216128,Y3Ga7Cu4,0.0
mp-1216242,W2N3,0.0
mp-1216663,TmGaAu,0.0
mp-1216840,U5PS4,0.0
mp-1217276,Th2Si3Os,0.0
mp-1217600,Ti17CuP12,0.0
mp-1217726,Tb2VFeO6,1.490699999999999
mp-1218083,Ta6TeSe2,0.0
mp-1218179,TaCo,0.0
mp-1219566,RbTiNbO5,2.6976
mp-1219996,PrCu4Pd,0.0
mp-1220639,Nd2MnFe3Ge4,0.0
mp-1220700,Nb2Al3Ir,0.0
mp-1221714,MnAl24Cr,0.0
mp-1221942,Mn2Bi3Sb3O14,1.651899999999999
mp-1222196,Mg2V2CoO8,2.5119
mp-1222199,Na20Zn8Sn11,0.023199999999999003
mp-1222200,Mg(InSe2)2,0.43460000000000004
mp-1223204,La7CoI12,0.025999999999999003
mp-1223217,La4Ti3(SO2)4,0.6553000000000001
mp-1223540,KNb3(PO5)3,0.0
mp-1224115,Ho2P7Rh12,0.0
mp-1224321,HfAlZn,0.0
mp-1224571,GdThN2,0.0
mp-1225327,DyCuPbS3,1.6685999999999992
mp-1225628,ErCuPbS3,1.609099999999999
mp-1225638,Er2P7Rh12,0.0
mp-1225693,DyMn2SiGe,0.0
mp-1225826,Cu2B3Ir4,0.0
mp-1226006,CoSi4Ni,0.0
mp-1226342,Cr4CoNiS8,0.0
mp-1226405,Cr4CuNiSe8,0.0
mp-1226936,Cd4MoW3O16,2.7937000000000003
mp-1228476,Ba3In2WO9,2.6595999999999993
mp-1228489,Ba3Ta4Ti4O21,2.1913
mp-1232292,Mg(AlGe)2,0.0
mp-1232332,ZnCu2SiSe4,0.5611
mp-1239394,TiSb(PO4)3,2.1986
mp-1247154,MgMnN2,0.0
mp-12490,CsHoCdTe3,1.546799999999999
mp-12562,CeCu5Au,0.0
mp-1261,EuZn,0.0
mp-12615,TbBe13,0.0
mp-12876,ThPS,0.0
mp-12920,CePIr,0.0
mp-12960,Er5Sb3,0.0
mp-13118,CeZn3Pd2,0.0
mp-1334,Y2C,0.0
mp-13415,Ta3B2,0.0
mp-13503,ScZn2,0.0
mp-1380,Zn3Ru,0.0
mp-14252,Ca3UO6,2.2988
mp-14551,Sr2CaUO6,2.211299999999999
mp-14652,Cs2P3,1.0748
mp-15433,K2Ga2Sb3,0.906899999999999
mp-1553,HoNi5,0.0
mp-15669,Ti3Te4,0.0
mp-15793,LiTbSe2,1.6708
mp-15968,Sm(CoSi)2,0.0
mp-16258,CaCdGe,0.0
mp-16383,Na3Cr2(AsO4)3,2.6075
mp-16402,Tb4(SiS4)3,2.365599999999999
mp-1689,HfRe2,0.0
mp-17088,KBaPS4,2.7021
mp-17371,K2ErF5,7.111499999999999
mp-17693,SrCdP2O7,3.7032
mp-17785,KNa2GaO3,3.0555
mp-18026,SrZn11,0.0
mp-18137,TaVO5,2.172
mp-18167,Ca3Cd2,0.0
mp-18253,SrGa4O7,2.434599999999999
mp-18429,KAg(NO3)2,2.4229
mp-18784,DyVO4,2.9842
mp-18855,Co2Te3O8,2.4778000000000002
mp-19004,Sr8Fe8O23,0.0
mp-19471,Ba5Sm8Mn4O21,1.9978999999999991
mp-19817,Y3InC,0.103699999999999
mp-19882,MnBPbO4,2.382199999999999
mp-2012,LiHg,0.0
mp-20197,Cr2GaC,0.0
mp-20648,V2C,0.0
mp-20892,ZrFeP,0.0
mp-2104,UAs,0.0
mp-21081,ScNiB4,0.0
mp-21113,Y(FeGe)2,0.0
mp-21289,TiZn3,0.0
mp-21298,NpSi2,0.0
mp-21355,Cr2TeO6,1.4929000000000001
mp-21408,Gd(SiOs)2,0.0
mp-21432,LaPb3,0.0
mp-21441,CeSiIr,0.0
mp-215,YSb,0.0
mp-21683,In2(Ni7P2)3,0.0
mp-21691,La5Pb4,0.0
mp-21795,Yb(Ga4Co)2,0.0
mp-218,Sm2O3,3.8775
mp-22008,EuIn4Pd,0.0
mp-22117,GdB2Rh3,0.0
mp-22146,In3Pd5,0.0
mp-22247,ErSiRu,0.0
mp-22493,YInAu2,0.0
mp-22508,YMn12,0.0
mp-2266,YbAg,0.0
mp-22725,TiInCu2,0.0
mp-23047,Ho6MnBi2,0.0
mp-23130,Sr2Co(ClO)2,2.442799999999999
mp-23252,Ce4Bi3,0.0
mp-23331,Si3(BiO3)4,3.9876
mp-2435,HoCo5,0.0
mp-2548,PuAs,0.0
mp-27264,NaTiF4,0.20339999999999903
mp-27271,Tl8Ge5O14,2.218
mp-27317,SbAsF8,3.883899999999999
mp-27740,NaNp2F9,0.0007000000000000001
mp-2778,HoAg,0.0
mp-27922,GeI2,2.0732
mp-28360,Na3CrCl6,1.7406000000000001
mp-2838,UNi5,0.0
mp-28468,KAg5S3,0.697299999999999
mp-28753,NdI2,0.0
mp-29143,Na3VS4,1.471499999999999
mp-29189,V(HgO2)2,1.239299999999999
mp-29352,Ba2PdO3,0.029399999999999003
mp-29699,TiNb3O6,0.5508999999999991
mp-29720,Li21Si5,0.0
mp-30137,Gd3ReO8,1.6189
mp-30208,YCuP2,0.0
mp-30221,Ba5P5I3,0.0
mp-30291,Tb4Se3N2,1.4002
mp-30308,TlAuF6,1.4294
mp-30466,YbBiPd,0.0
mp-3048,U2SeN2,0.0
mp-30571,Tl2Au,0.0
mp-30730,Ho5Pb3,0.0
mp-30809,Th7Ni3,0.0
mp-30835,TaPd2,0.0
mp-30890,Hg3SO6,0.5752
mp-309,ThAg2,0.0
mp-31039,Rb6Te2O9,0.848699999999999
mp-31166,DyTlS2,1.6523999999999992
mp-31277,Sn4Ir,0.0
mp-31760,Sr2TaFeO6,1.5015
mp-3299,Sr(FeP)2,0.0
mp-34232,K(AsRh)2,0.0
mp-34763,NaAlB14,1.701499999999999
mp-3556,Tm2SO2,3.139599999999999
mp-37693,Nd2EuS4,0.330999999999999
mp-39020,LiTa3N4,0.0
mp-4147,Th(GePd)2,0.0
mp-434,SrAu2,0.0
mp-4633,Yb(SiPd)2,0.0
mp-4743,ErTiGe,0.0
mp-4904,Pr(SiRu)2,0.0
mp-4989,CrNiAs,0.0
mp-504593,Pb2CCl2O3,3.2891
mp-504742,Pr8Ga3Co,0.0
mp-505043,Eu3Sb5O12,0.0
mp-505322,CsTa(CuTe2)2,1.3041
mp-505362,Ca(LuS2)2,1.5806999999999989
mp-505372,Np(BH4)4,0.12189999999999901
mp-505495,KP4N7,3.754599999999999
mp-510315,Ce(GeIr)2,0.0
mp-510598,YMn2O5,1.2384
mp-532315,Sr17(Ta5S21)2,1.7864
mp-540927,UPCl10,0.0
mp-541355,Rb2(TcSe2)3,0.885899999999999
mp-541668,SbP2O7,2.239299999999999
mp-541912,ZrBrN,1.767599999999999
mp-541917,Na2Te4WO12,3.1222
mp-542024,Sc2GaB2Rh5,0.0
mp-542656,Cs2AlP3O10,4.6667000000000005
mp-542967,SnSO4,4.187699999999999
mp-543019,GdNi2,0.0
mp-543024,Cs2Pd(IBr2)2,0.8374
mp-552028,Nd2Ti2S2O5,0.8242
mp-554497,CuSb2(XeF5)4,0.693099999999999
mp-555349,La2CO5,3.9406
mp-555909,Tb5Se2Cl3O10,3.784
mp-557090,Bi2Au5F21,1.4016
mp-557829,Lu2Te5O13,3.038399999999999
mp-558224,Dy2(TeO3)3,3.210699999999999
mp-558258,Eu2I2O,0.0114
mp-558283,KMo2P3O13,2.685
mp-558415,K3CuP2S7,2.2349
mp-558834,Eu2B5BrO9,0.8801000000000001
mp-558967,K3Ta2S11,1.7459
mp-559,YPd3,0.0
mp-559795,Rb7NaZn2O6,1.5704
mp-559868,NaLa(CO3)2,3.8586
mp-560240,K2SbPO6,2.5161
mp-560261,TaBiO4,2.9491
mp-560455,EuCu(MoO4)2,0.0
mp-560549,AuSeClO3,1.546
mp-560590,Nd2Mo(SeO5)2,3.3162000000000003
mp-560739,K3Li3TeO6,2.694899999999999
mp-560740,La2SnS3O2,1.6885
mp-561356,Cs2UP2O9,2.1521
mp-561367,F2,2.456
mp-561375,Pr10S19,0.511
mp-561973,K(TeO3)2,1.1127
mp-564,TePd,0.0
mp-568077,TaFe2,0.0
mp-568904,KTh(SbSe3)2,0.7359
mp-568917,LaInAg2,0.0
mp-569129,TlCuPSe3,1.5272999999999999
mp-569294,NdB2Rh2C,0.0
mp-569737,Tb(SiPt)2,0.0
mp-570192,CsZr6MnI14,0.952199999999999
mp-570632,ScBi,0.0
mp-570907,Tm(GeRu)2,0.0
mp-571217,La3SiPd5,0.0
mp-571336,La4Pb3,0.053399999999999004
mp-571554,PrAlSi2,0.0
mp-572596,TlIn3S5,1.7594
mp-573037,Tb2MnNiO6,1.9445000000000001
mp-579605,Cs2KEuCl6,0.0
mp-580525,DyNiSn2,0.0
mp-604008,CeAlRu,0.0
mp-606644,CuP10,1.0431
mp-6077,Ba3SmRu2O9,0.0
mp-6105,Pr2Ta3(SeO4)2,0.9477000000000001
mp-632490,Eu2SnS4,0.004299999999999
mp-6386,K2ZnGeO4,2.853399999999999
mp-640108,Ce2InNi2,0.0
mp-6414,Ca3Cr2(SiO4)3,3.222899999999999
mp-643367,YCBr,0.0
mp-645694,Ce3LuSe6,0.0
mp-646110,Y14(InRh)3,0.0
mp-651024,KAlGeO4,3.937999999999999