material_id,pretty_formula,band_gap
mp-1200068,Ba4Ru3O10,0.0
mp-1200551,Nd2US5,0.0
mp-1201139,Lu2(Ni5B3)3,0.0
mp-1201250,Cs3Zr7MnCl20,1.1378
mp-1201529,VB(PbO2)4,2.889599999999999
mp-1201574,In2Hg6(PCl3)3,2.4934000000000003
mp-1201694,K2Tc9O27F11,2.6599
mp-1201817,Er3Si11Pt23,0.0
mp-1203059,LiAs3H2O9,2.8067
mp-1203326,Ga2Hg3Cl8,2.5314
mp-1203331,Hf2(NiAs)3,0.0
mp-1203833,Ga31Mo6,0.0
mp-1205061,Zr(TlSe)4,1.325399999999999
mp-1205490,La3(AgSn)4,0.0
mp-1205624,GdFe2SiC,0.0
mp-1205891,NdMgPd,0.0
mp-1206022,TmCdCu4,0.0
mp-1206235,PrSiI,0.0
mp-1206309,ErCr2Si2C,0.0
mp-1206326,ErAlSi,0.0
mp-1206441,V5B6,0.0
mp-1206803,Y2CI2,0.5638999999999991
mp-1207239,Pr2GaNi2,0.0
mp-1207739,TmTl(WO4)2,2.7784
mp-1207769,Yb12Ga19Au25,0.0
mp-12079,K(CoS)2,0.0
mp-1207998,Y4MgCo,0.0
mp-1208463,Tb4CdIr,0.0
mp-1209044,Sc5Sb3,0.0
mp-1209558,RbEu(WO4)2,0.0
mp-1209793,Np(FeP3)4,0.17149999999999901
mp-1209956,NaTb(Pd3O4)2,0.060699999999999005
mp-1210154,Nd3Ni3Bi4,0.0
mp-1210413,Pr23Cd4Rh7,0.0
mp-1210534,NaAgTe5O14,0.8815000000000001
mp-1210650,LuZnRh,0.0
mp-1211101,NbNi11(BO5)4,0.0
mp-1211780,K6Na4Tl13,0.0
mp-1212131,HoTl(WO4)2,2.8618
mp-1212711,Gd2MgPtO6,2.0334
mp-1212816,KGd(SeO4)2,3.183
mp-1212868,DyCoB4,0.0
mp-1212933,ErNiAs,0.0
mp-1213054,Eu2TlCl5,0.5274000000000001
mp-1213100,ErCoB4,0.0
mp-1213201,Er5SbPt2,0.0
mp-1213263,Dy(GaCo)6,0.0
mp-1213579,Gd2Sc3Si4,0.0
mp-1213724,Cs2LaCl5,4.1149000000000004
mp-1213768,CeSi2Rh3,0.0
mp-1214446,Ba8Lu3(Pt2O9)2,0.0
mp-1214916,Ba3InIr2O9,0.0
mp-1215209,ZrTaB4,0.0
mp-1215600,Zr2CoNi,0.0
mp-1215639,Zr2Ga3Cu,0.0
mp-1216673,U2CS,0.0
mp-1216746,Tm2InAg,0.0
mp-1216939,TiTeO3F2,2.7358000000000002
mp-1217065,Ti8Cu3Ni,0.0
mp-1217253,Ti10CrSb5,0.0
mp-1218595,Sr6Al12Bi2O27,3.5328
mp-1219107,SmCdIn,0.0
mp-12193,Nd2Ti2O7,2.9231
mp-1219894,Pr2InAg,0.0
mp-1220160,NdGa3Pt,0.0
mp-1220280,Pr14Au51,0.0
mp-1220616,Nd2Si2PbSe8,1.8178
mp-1220626,Sc36In5Co13,0.0106
mp-1221196,Na4Eu(SiTe3)2,0.531299999999999
mp-1221342,MnNiP2,0.0
mp-1222082,Mg6CdIn,0.0
mp-1222370,LiGdS2,1.5825
mp-1222701,LaTmS2,0.0
mp-1222731,LaUN2,0.0
mp-1222965,LaYIn6,0.0
mp-1223278,Li(TiS2)2,0.0
mp-1223301,La2Al3Cu7,0.0
mp-12236,Er3Ga5O12,3.3298
mp-1223670,La14Au51,0.0
mp-1224049,K3H(SeO4)2,3.3237
mp-1224669,K16Tl22Pd,0.0
mp-1225586,ErGaAu,0.0
mp-1225592,DyGa3Cu,0.0
mp-1225597,Er2Ga3Cu,0.0
mp-1225967,CsPSe6,1.6333000000000002
mp-1226591,CeUZn17,0.0
mp-1226626,CeAlNi4,0.0
mp-12274,LaAl4Co,0.0
mp-1227922,ErCd6,0.0
mp-1228183,Ba4Re2NiO12,1.8907
mp-1228450,Ba4Bi(PbO4)3,0.0
mp-1229201,Ag6HgNO11,0.0
mp-1229284,Eu8Mn3Nb5O28,0.0
mp-1229298,CaCd6,0.0
mp-12646,EuNbO4,0.0
mp-12730,Ba2YbRuO6,0.0
mp-13000,Ba2HoTaO6,3.4478
mp-1307146,Ca2FeIrO6,0.0
mp-13207,CeZnPO,0.0
mp-14208,LiYSi,0.0
mp-1431,MnSi,0.0
mp-14429,CsK4GaO4,2.2621
mp-14634,K2VAgSe4,1.0109
mp-14793,Mg2SiPt,0.0
mp-15217,Rb2TaAgS4,2.5595
mp-15783,KSmS2,2.3791
mp-15792,LiGdSe2,1.2931
mp-15842,Nb2Co12P7,0.0
mp-16001,Rb5Ti6AgSe27,0.5599000000000001
mp-16036,Tb2TeO2,1.220499999999999
mp-16315,GePt3,0.0
mp-16514,Al3Ni5,0.0
mp-1658,Tl2O3,0.031000000000000003
mp-16863,Rb3PS4,2.736799999999999
mp-17243,Pr3CuSnSe7,1.2738
mp-17522,K4Rb2Co2O5,1.5347
mp-17717,Pu3Pd4,0.0
mp-17984,Ag8SnSe6,0.47529999999999906
mp-18327,Ba2Tl2O5,0.6503000000000001
mp-18447,K3Na2SnAs3,0.577299999999999
mp-18567,CaZn11,0.0
mp-1857,YbCd,0.0
mp-18667,TbGe2Ir,0.0
mp-18827,AlVO4,3.0743
mp-18856,MoO3,1.6488
mp-19164,BaDy2CoO5,1.4782
mp-19287,NaV(SiO3)2,1.9872
mp-19769,Tb3InN,0.0
mp-20285,NaPt3O4,0.0
mp-20339,Ti2InNi2,0.0
mp-20402,Lu6UO12,1.9343
mp-20444,GdIn2Rh,0.0
mp-20603,CeTl3,0.0
mp-21064,EuNi2B2C,0.0
mp-21067,ScInCu2,0.0
mp-21085,PuPd3,0.0
mp-21306,TiCoSi,0.0
mp-21434,CoCO3,0.0
mp-21557,K3Ce(PS4)2,0.003
mp-21901,SrIn4Ir,0.0
mp-2194,TiSe2,0.0
mp-22432,Ti4Cu2O,0.0
mp-22482,ErMn12,0.0
mp-22627,Dy2(Ga3Ru)3,0.0
mp-22637,HfNbP,0.0
mp-22658,Co2NiS4,0.0
mp-23183,NdCl3,4.2997
mp-23285,CeBi,0.0
mp-23445,Bi2Ru2O7,0.08420000000000001
mp-2493,CeN,0.0
mp-2503,Pd7Se4,0.0
mp-2538,Y5Si3,0.0
mp-25436,TiPO4F,2.4402
mp-2593,AlNi3,0.0
mp-2621,ErAg,0.0
mp-265,TaIr3,0.0
mp-27303,NaAg3O2,0.7541000000000001
mp-27346,Al2Hg3Cl8,2.4938000000000002
mp-27477,TcOF4,0.9972000000000001
mp-2762,YIr2,0.0
mp-27698,Y6UO12,1.961899999999999
mp-277,Zr3N4,1.273599999999999
mp-28107,Na4Ge2Te5,1.1111
mp-28542,Na3ErCl6,5.504399999999999
mp-28606,K3AuSe13,0.7239
mp-28728,K6Sn3As5,0.638999999999999
mp-28866,Te2OsCl12,0.0
mp-28885,PSe,2.2456
mp-28924,Ga8BIr4,0.0
mp-28954,Tl2PdSe2,0.0
mp-29242,Ba3PbO,0.46630000000000005
mp-2926,Pr2MgNi2,0.0
mp-29295,Sr3Sb4S9,1.0415
mp-29556,Tl2WCl6,0.0
mp-29739,Na5SnSb3,0.23270000000000002
mp-29912,Sb2MoSe,0.0
mp-30039,Na2Al2Sb3,0.7579
mp-30347,ScInAg2,0.0
mp-30349,Li2AgPb,0.0
mp-30388,HoInAu2,0.0
mp-3041,Er2CdS4,1.3904
mp-30502,TmCd3,0.0
mp-3051,Mg2GeO4,3.4111000000000002
mp-30621,DySi2Rh3,0.0
mp-30760,Li3Pb,0.0
mp-30778,Mg5Rh2,0.0
mp-30808,TbNi5,0.0
mp-30865,TmRh2,0.0
mp-31103,Ni3Te2,0.0
mp-31150,Sr2Bi3,0.0
mp-31307,Ba2SnSe5,1.0762
mp-31369,Gd2B4O9,2.874
mp-3144,HoNbO4,3.5028
mp-3296,Yb(GePd)2,0.0
mp-3315,CaPd3O4,0.0212
mp-3479,CaAl9Ni,0.0
mp-35,Mn,0.0
mp-3507,Lu(SiPd)2,0.0
mp-3572,Gd2(MoO4)3,0.0
mp-3651,Nd(SiRh)2,0.0
mp-3710,HoBRh3,0.0
mp-3726,Li2GaPt,0.0
mp-3733,BeTl2F4,4.5802
mp-37480,LiSbSe2,0.0
mp-3997,Sm(CuSi)2,0.0
mp-4073,Sm(CoB)2,0.0
mp-4105,Ho(CuSi)2,0.0
mp-4789,PrRhO3,0.6044
mp-485,ZrNi3,0.0
mp-4887,BaCeN2,0.7673000000000001
mp-504674,Ba2EuReO6,0.0
mp-505499,Ta4BTe8,0.0
mp-505515,Sr(CuSb)2,0.0
mp-505743,GaBPbO4,3.3239
mp-510232,Nd12Co6Sn,0.0
mp-510437,In3Pd2,0.0
mp-510492,PuRh3C,0.0
mp-510593,Dy5CoSb2,0.0
mp-530910,La6YbSe10,1.6795
mp-5376,Y4Ga12Pd,0.0
mp-540947,CoNi(PO3)4,3.2609
mp-541686,K3GaS3,2.7209
mp-541707,K6Na3AlSb4,0.7282999999999991
mp-541975,Rb3Ta2S11,1.6649
mp-542081,K2LaP2S7,2.2563
mp-542210,K2MoP2O9,3.033
mp-542429,Mg3Rh,0.0
mp-542930,Eu2(Ga3Ir)3,0.0
mp-546082,TmBi2ClO4,1.4891
mp-550635,LuBi2IO4,1.4425
mp-553962,Rb2LiNbS4,2.3099
mp-554121,NaHf2VF11,3.1814
mp-554266,Ba3SrIr2O9,0.001
mp-554623,Sm2Ta2Cl2O7,3.1379
mp-554741,KErP2S7,2.6388
mp-554855,CrF4,1.5653000000000001
mp-555082,CsLi5(BO3)2,3.4975
mp-555490,KRe2O4F7,3.046399999999999
mp-555860,EuTiClO3,0.0
mp-555890,La7(RuO6)3,0.405199999999999
mp-555929,Sr2MnMoO6,0.930099999999999
mp-555988,Na4UCr3O14,2.0483
mp-556338,RbMnPO4,0.0
mp-556551,GdSeClO3,3.0483
mp-556744,TlInSiS4,2.4357
mp-556847,RbV(IO4)2,2.7591
mp-557293,Li2CdSiO4,2.8338
mp-557517,Tb3CuGeS7,1.852199999999999
mp-557607,AlMoP2O9,2.7615
mp-557638,NaMo2P3O13,2.4504
mp-558062,K6Ti2S6O,2.4831
mp-558083,BaLi2Ti6O14,2.8895
mp-558244,As(IF3)2,0.5446
mp-558403,P2Pb(XeF6)3,2.5014000000000003
mp-558465,LaAg(PO3)4,3.9387
mp-558740,Dy3CuGeS7,1.876599999999999
mp-559405,RbU2SbS8,0.0204
mp-559459,CsInS2,2.1723
mp-559516,K3Nb(SO4)4,2.9435000000000002
mp-559869,Na2VPO6,3.3164
mp-560010,Rb2Ga2B2O7,3.6746
mp-560715,Sn5(PO5)2,2.8834
mp-562912,Co6Te3(ClO6)2,2.2157
mp-565836,MoSO6,3.0746
mp-567997,Sm3(CoGe2)2,0.0
mp-568168,Rb(In3Au2)2,0.0
mp-568519,Tm3(CuGe)4,0.0
mp-568559,YbAg2,0.0
mp-568617,Tb8Ni18P11,0.0
mp-568646,Ta3Si,0.0
mp-568940,Y(NiP)2,0.0
mp-569168,Ba6NaCu3Te14,0.646899999999999
mp-569398,La4Al5Br2,0.0
mp-569440,TmInAg2,0.0
mp-569881,Sr(NiSb)2,0.0
mp-570199,Ti3Pd5,0.0
mp-571008,Pr(CoAs)2,0.0
mp-571350,Ba(AsPd)2,0.0
mp-574244,Ce(PRu)2,0.0
mp-580161,Na3InBi2,0.025800000000000003
mp-580744,Hf6Si7Ni16,0.0
mp-581330,CsCa2Nb3O10,2.0693
mp-581510,La4CdCo,0.0
mp-582357,Eu(FeSi)2,0.0
mp-582421,KUCuSe3,0.0
mp-582797,Gd2MoO6,2.1883
mp-583084,Rb3Er3(PS4)4,2.282199999999999
mp-584429,Co(PO3)3,1.5288
mp-5983,Tm(CoGe)2,0.0
mp-607182,GdCuSi,0.0
mp-621619,Gd3(CuGe)4,0.0
mp-637206,AlBiSeCl4,2.6015
mp-6390,Rb3Ti3(PO4)5,2.5366
mp-639659,InCuPt2,0.0
mp-653182,K4US3O14,1.8491
mp-654301,Nb5P7O30,2.5661
mp-6665,Ba4LiW2N7,1.982299999999999
mp-6692,Ba2PrSbO6,3.713
mp-672290,EuPPt,0.0
mp-672654,Zr6Co16Ge7,0.0
mp-6764,BaSi2(NO)2,3.0102
mp-6765,Li3AlGeO5,3.971799999999999
mp-6770,BaLa2MnS5,0.0
mp-679987,NbP2S2Cl5,1.6878000000000002
mp-692,Tb2C,0.0
mp-696794,RbHSeO4,3.6477999999999993
mp-7088,Ta2C,0.0
mp-7251,Ba2YNbO6,2.8555
mp-7263,CaGaN,0.0
mp-7291,CrP2,0.0
mp-75,Nb,0.0
mp-752810,NaVP2O7,2.1406
mp-753119,Cs(WO3)3,0.0
mp-756275,LiTiCrO4,1.6590999999999991
mp-756970,Al2(SeO4)3,3.0567
mp-759763,La26B8O51,3.4413
mp-768523,La3Pt3O11,0.0
mp-7704,Ca(AlSi)2,0.0
mp-770547,Mn2PO5,0.2599
mp-773066,KTa2PO8,3.0048
mp-779716,Cs4GeO4,2.9231
mp-7806,Cr3P,0.0
mp-7814,Ta2CS2,0.0
mp-7880,Sr(SiAg)2,0.0
mp-7976,RbGdO2,3.0399
mp-828,SiNi3,0.0
mp-861904,La3AlCrS7,0.043499999999999005
mp-862423,Sc2TcPd,0.0
mp-862694,Al2IrRh,0.0
mp-862777,TmPaRu2,0.0
mp-862806,Er4Ga16Co3,0.0
mp-862881,CaPmCd2,0.0
mp-862962,CaLaZn2,0.0
mp-864941,MgSc2,0.0
mp-865222,Dy2RuRh,0.0
mp-865361,Tm2MgOs,0.0
mp-865483,Li2GdIn,0.0
mp-865558,AcTe3,0.0
mp-865896,YbPmAg2,0.0
mp-865903,YbPmPt2,0.0
mp-865950,AcAg3,0.0
mp-865961,K3Bi(AsSe2)6,1.5293999999999999
mp-865993,YbSmRh2,0.0
mp-866101,AcCrO3,2.0832
mp-866289,Ac2ZnSi,0.0
mp-867250,LiZn2Pd,0.0
mp-867288,TbHg3,0.0
mp-867773,DyMgCd2,0.0
mp-8868,Ba3NaN,0.0
mp-8960,Ba3NaNbO6,3.176199999999999
mp-9227,Ti3Se4,0.0
mp-971737,V2OsRu,0.0
mp-972323,TaNbTc2,0.0
mp-973633,LuSi2Ni,0.0
mp-974387,Nd2AgHg,0.0
mp-9768,BaSb2Pd,0.0
mp-978544,SmLuTl2,0.0
mp-979421,YErZn2,0.0
mp-980647,TmThOs2,0.0
mp-981311,SrTlHg2,0.0
mp-9849,SmP5,0.06379999999999901
mp-987,ZnCu,0.0
mp-989522,Mg6Bi2PN,0.22609999999999902
mvc-9963,V2ZnO4,1.3685
mp-1001603,LuNiC2,0.0
mp-10129,TmNi4B,0.0
mp-1017508,LuTlTe2,0.8179999999999991
mp-1018658,CaCoSi,0.0
mp-1025087,NdNiSb,0.0
mp-1025200,Eu2TiO4,0.0
mp-1025246,Er2B4C,0.0
mp-1025270,GaPPt5,0.0
mp-1025323,Dy2Cr2C3,0.0
mp-1025390,LaSi2Ag,0.0
mp-1025551,GaPt,0.0
mp-1025564,LuAl2Pd5,0.0
mp-1068042,Yb(MgBi)2,0.2751
mp-1068843,Sm2BiO2,0.0
mp-1068954,Tb2BiO2,0.0
mp-1069444,Eu(AsPd)2,0.0
mp-1069561,Dy2BiO2,0.0
mp-10706,ZrRu3C,0.0
mp-1070631,Sm2InNi2,0.0
mp-1071536,USnAu,0.0
mp-1072381,LuNi4Au,0.0
mp-1072888,TmGeAu,0.0
mp-1077471,YbBiAu,0.0
mp-1078242,YAlPd2,0.0
mp-10783,RbHoSe2,2.0379
mp-1078341,EuNbO3,0.0
mp-1078402,ScGePd,0.0
mp-1079038,HfSnIr,0.0
mp-1079052,Er2CdGe2,0.0
mp-1079064,PrCoGe2,0.0
mp-1079121,SmCoC2,0.0
mp-1079305,TbPt,0.0
mp-1079347,La(AsRh)2,0.0
mp-1079508,Y2InCu2,0.0
mp-1079607,LiLaSn2,0.0
mp-1079794,LuSiAg,0.0
mp-1080454,DyPdPb,0.0
mp-10854,Tb(BC)2,0.0
mp-1095479,GdS2,0.3563
mp-1095498,Ba2Ni5Ge4,0.0
mp-1095501,TmSiPt,0.0
mp-1095536,VNiGe,0.0
mp-1097997,KEu(GeO3)2,0.0
mp-10996,Yb(MgSb)2,0.684
mp-1100896,Yb3GdSb3,0.15510000000000002
mp-1101654,NaEuO2,0.0
mp-1101817,SmNiGe,0.0
mp-1103253,UB4Ru,0.0
mp-1103487,CeGaPt,0.0
mp-1104268,Cs3Bi2Cl9,3.229899999999999
mp-1105411,LiCr(GeO3)2,2.888499999999999
mp-1105536,BaU2Te5,0.0
mp-1105570,TaMnSi,0.0
mp-1105746,SmGaPd2,0.0
mp-1105923,Ho2Si4Mo3,0.0
mp-1106066,La(Sb3Os)4,0.0
mp-1106367,HgS4,1.047499999999999
mp-1111150,K2LiCoF6,2.6277
mp-1114437,Rb2NaCeF6,0.280599999999999
mp-1114457,Rb2NaScI6,2.202499999999999
mp-1114523,Rb2InBiCl6,1.7024
mp-11171,LiRhF6,0.0
mp-11239,ZrAg,0.0
mp-11296,ErCd2,0.0
mp-11366,ZrZnCu2,0.0
mp-11474,TlHg3,0.0
mp-1158,LuPd3,0.0
mp-11603,KNd2CuS4,1.0327
mp-1173879,Li2CoO3,1.213
mp-1183086,Ac2CdHg,0.0
mp-1183579,CaLaAu2,0.0
mp-1183786,DyHoRu2,0.0
mp-1184381,Gd2AgAu,0.0
mp-1184543,GdLuAg2,0.0
mp-1184828,HoTmIn2,0.0
mp-11851,ErCoSn,0.0
mp-1185631,Mg149Sc,0.24960000000000002
mp-1186461,Pm2GaHg,0.0
mp-1186478,Pm2TlHg,0.0
mp-1186501,Pm3Ga,0.0
mp-1187376,TbSmRh2,0.0
mp-1187622,YbCeRh2,0.0
mp-1189923,Tm4Ge6Ir7,0.0
mp-1190267,Hf3As2,0.0
mp-11903,LiEu2IrO6,0.0
mp-1190673,Dy4Ni13C4,0.0
mp-1190834,SrNdCuS3,1.2165
mp-1191333,Zn2MoSeO7,3.717
mp-1191670,TbMnB4,0.0
mp-1191866,Y4Ga16Co3,0.0
mp-1192362,SrGdCuS3,1.1721
mp-1192564,Mg2GeSe4,1.493199999999999
mp-1192805,Ba(ErSe2)2,1.3948
mp-1193346,Zr4Co2N,0.0
mp-1193847,Hf6Al16Co7,0.0
mp-1194143,Sc11Ru4,0.0
mp-1194971,Ni5Se4(ClO6)2,3.1748
mp-1195616,LaAg(IO3)4,2.6846
mp-1195763,Sm(Al10V)2,0.0
mp-1196233,EuAl3(PbO4)2,0.07200000000000001
mp-1196547,TlAsH2F10,1.9754
mp-1196904,LuCo5P3,0.0
mp-1196964,Ba3Al3P5,1.4661
mp-1197658,Ba4Cu8P15,0.0
mp-1198240,La5(Sn5Ir2)2,0.0
mp-1198294,Dy2B6Os,0.0
mp-1198965,Er2B6Os,0.0
mp-1199012,Sm(BRu)4,0.0
mp-1199040,K3Bi2(NO3)9,3.5856
mp-1199235,La5Ir3,0.0
mp-1199325,Eu3Sn13Rh4,0.0
mp-1199633,Cs3Ag(AsSe2)4,1.604299999999999
mp-1200207,Cs8Ga11,0.0
mp-1200449,Ce3Sn13Ir4,0.0
mp-1200984,Dy3Si11Pt23,0.0
mp-1201143,AsClOF8,2.8689999999999998
mp-1201470,Sb2Os(OF7)2,1.4215
mp-1201675,Sr2Mn2SeO4,1.831799999999999
mp-1201682,ScFeGe2,0.025900000000000003
mp-1202234,U2ReB6,0.0
mp-1202673,Na3V3Cr2O12,2.3608000000000002
mp-12029,Li2CuP,0.0
mp-1203247,Gd(NO3)3,2.605
mp-1203906,Cs5Na(W2N5)2,1.8355000000000001
mp-1204286,SbH36S4N11,2.2175000000000002
mp-1204981,Cs3Zr2P5S18,1.9114
mp-1205710,Ce2InRh2,0.0
mp-1205898,Sc6Te2Ru,0.0
mp-1205979,SmMgAu,0.0
mp-1206945,Gd2Ni2Sn,0.0
mp-1207040,Ba2InOsO6,0.44510000000000005
mp-1207463,Zn3(SnPt)2,0.0
mp-1208758,Sr3Li6Ta2O11,4.1061
mp-1208761,Sr2SmTaO6,3.7854
mp-12088,Dy(SiOs)2,0.0
mp-1208846,Sr2CoSi2O7,3.365
mp-1209025,Sc2AlB2Ir5,0.0
mp-1209267,Rb2VF6,0.0
mp-1209389,PrTl(WO4)2,3.2509
mp-1209612,Rb2LaBr5,3.4379
mp-1209926,RbTaGeO5,3.6393
mp-1210159,Pr(Cu2P)2,0.0
mp-1210297,Pr23Cd4Pt7,0.0
mp-1210632,Nd12Co6Pb,0.0
mp-1210658,Lu5CuPb3,0.0
mp-1210682,Na3Li3Rh2F12,2.1389
mp-1210912,Lu2(Al3Rh)3,0.0
mp-1210940,Li(YGe)4,0.0
mp-1211080,LiNd2RuO6,0.0
mp-1211252,Li2La(NO3)5,3.7234
mp-1211420,La4CdIr,0.0
mp-1211458,LaSbRh,0.0
mp-1211547,K2ThO3,3.7218
mp-1211600,KNd(SeO4)2,3.439899999999999
mp-1211747,K2Zr6BeCl15,0.0
mp-1211886,K2NdI5,3.040999999999999
mp-1211977,K2CoI4,0.5805
mp-1212189,HfMnP,0.0
mp-1212821,Er4Ga12Pt,0.0
mp-1213069,Fe3Pb5F19,2.9884999999999993
mp-1213266,Gd12Co6Pb,0.0
mp-1213448,Gd2Sc3Ge4,0.0
mp-1213870,Ce2CN3Cl,0.0
mp-1214332,BaSrBi3,0.0
mp-1214585,Ba2Pr(CuO2)3,0.0
mp-1214751,Cs3ScF6,6.2612
mp-1214851,Al3Co3Si4,0.0
mp-1215020,Al2(Zn13Pd3)3,0.0
mp-1215386,Zr3Ti2Si3,0.0
mp-1215664,YbCdAg,0.0
mp-1215676,YZnSi,0.0
mp-1215820,YUCo10,0.0
mp-1215833,Yb5P12Ir19,0.0
mp-1216514,V4Cd3(PO4)6,1.9981
mp-1217070,Ti2RePt,0.0
mp-1217148,Ti3VS6,0.0
mp-1217338,Ti2Cr4(CuSe4)3,0.0
mp-1218132,Ta3Sb(PO4)6,2.3032
mp-1218412,Sr4TaFeO8,1.790899999999999
mp-1218614,Sr4Li(RuO4)3,0.0
mp-1219352,Sm2Mn17C2,0.0
mp-1219385,Sm14Au51,0.0
mp-1219896,Pr3MgNi14,0.0
mp-1220154,NdU2S5,0.0
mp-1220243,Nd6Mg(GeS7)2,2.0709
mp-1220262,Nd6Cd(GeS7)2,2.0452
mp-1220717,Nd7In6Ni5Ge3,0.0
mp-1221073,NaCeS2,0.0
mp-1221111,NbFe,0.0
mp-1221155,Na4Sr2TiP4,1.3174000000000001
mp-1221636,MnCrB2,0.0
mp-1222154,Mg4Sn6Pt5,0.0
mp-1223746,InSb3Pb4O13,1.5587
mp-1223765,HoCu4Ni,0.0
mp-1223820,Hf2Al3Cu,0.0
mp-1224602,H9Au(ClO)4,1.5103
mp-1224689,GdErCo4,0.0
mp-1225041,DyZnSi,0.0
mp-1225124,EuGaSi,0.0
mp-1225485,HoCd6,0.0
mp-1225792,Er5P12Ir19,0.0
mp-1226383,Cs12Sn2As6O,0.5659000000000001
mp-1226386,Cr2HgSe3S,0.0
mp-1227050,CaSmB12,0.0
mp-1228900,AlGeMo,0.0
mp-1239209,TaCr3(AgS4)2,0.0
mp-12497,CsSmCdTe3,1.5270000000000001
mp-12783,Sr(CdGa)2,0.0
mp-12837,Er3FeSi3,0.0
mp-13094,YAl2Ni,0.0
mp-13120,CeSi3Ru,0.0
mp-13270,CaAg2,0.0
mp-13406,LaAgPb,0.0
mp-14107,NpF3,0.0
mp-14493,Na5InO4,1.7202000000000002
mp-14988,K4SnO3,2.1096
mp-1521,Sb7Mo3,0.0
mp-15416,Rb2GaAs2,0.880599999999999
mp-15898,Dy2Co3Si5,0.0
mp-16481,TiAlAu,0.0
mp-16770,Ca2Ag7,0.0
mp-16801,GdSO4F,0.22260000000000002
mp-17090,SrTlPS4,2.1011
mp-17375,K2Na3TlO4,1.3295
mp-17501,Ba(ScTe2)2,0.43100000000000005
mp-17557,Sr3ScNiO6,0.0
mp-17688,CsGaTe2,1.2835
mp-17789,K2RuO4,0.16969999999999902
mp-1832,LaPt5,0.0
mp-18582,Rb2Ti(Si2O5)3,3.487
mp-18612,Rb2MoS4,1.8107000000000002
mp-19007,V2PO5,0.025599999999999002
mp-19210,CoPtO2,0.0
mp-1929,NdB6,0.0
mp-19865,Ce(MgSi)2,0.0
mp-20000,Nd(NiSn)2,0.0
mp-2001,LaTl3,0.0
mp-20020,NdCuSb2,0.0
mp-20052,LiMnAsO4,1.6879
mp-20240,YbIn2Pd,0.0
mp-20250,PdS,0.006299999999999001
mp-20481,MnSnPd2,0.0
mp-2053,Nb3Sb,0.0
mp-20563,Ba(CoAs)2,0.0
mp-20686,Ho2In,0.0
mp-20687,Sr2LuRuO6,0.11950000000000001
mp-20780,Tb(MnSn)6,0.0
mp-20801,LiIn2Pd,0.0
mp-21068,CaIn2,0.0
mp-21164,SrGePt,0.0
mp-21199,Na3(GePt)4,0.0
mp-2121,ScAl3,0.0
mp-21526,KPb,0.37349999999999905
mp-21724,ZnSiPbO4,3.103
mp-21931,Sc11(AlGe4)2,0.0
mp-22033,Ti5Sb3,0.0
mp-22126,U2S3,0.0
mp-22280,PrNiO3,0.0
mp-22585,GeRh2,0.0
mp-22625,Cr2CuTe4,0.0
mp-22758,U(SiIr)2,0.0
mp-23117,La3W(ClO2)3,3.624600000000001
mp-23896,LuHCl,0.0
mp-24113,SnH8(NF3)2,5.1263
mp-24470,Fe4P3(HO5)3,1.4896
mp-2529,PrRh2,0.0
mp-25305,Y2Ti2S2O5,0.7986000000000001
mp-2566,PuSb,0.0
mp-2645,YbNi5,0.0
mp-2681,Ho5Sb3,0.0
mp-2686,Ca2N,0.0
mp-27147,Rb3BiBr6,3.3
mp-27261,Ba7(BIr)12,0.0
mp-27622,Na2PbO2,2.4078
mp-27697,ThI4,1.8452000000000002
mp-27768,Co(BW)3,0.0
mp-27980,U(OF)2,2.1165
mp-28091,In2(TeO3)3,3.017799999999999
mp-28202,K3NO4,3.6559
mp-28337,V4As2O13,1.677699999999999
mp-28490,Tl3BSe3,1.666399999999999
mp-28672,Zr2TeBr12,2.4105
mp-28789,Na4Cu2S3,2.0857
mp-2889,LaPd3S4,0.0
mp-28896,CuBIr,0.0
mp-29114,Re3Te4Cl5,1.2409000000000001
mp-29254,PrIO,3.723299999999999
mp-29263,UBr5,0.2927
mp-2927,LiAg2Sn,0.0
mp-29839,Bi2SeO5,2.8776
mp-29870,Ir(Cl2F3)2,0.0
mp-29938,Ba(GaSb)2,0.038199999999999006
mp-30006,Co(NO3)2,1.8387
mp-30359,TmAg2,0.0
mp-30657,TiGaNi2,0.0
mp-30712,Sm2Zn17,0.0
mp-30724,ThHg3,0.0
mp-30837,TbTlPd,0.0
mp-30919,LaGa6Pd,0.0
mp-31160,CaZnSn,0.0
mp-31486,K2SnBi,0.16769999999999902
mp-3201,Li2GaPd,0.0
mp-33332,Co5SbO8,0.0
mp-3583,U2AsN2,0.0
mp-4177,Dy(SiRu)2,0.0
mp-4336,LaPPd,0.0
mp-443,CaAu2,0.0
mp-4500,ZrNbP,0.0
mp-4756,ZnSnSb2,0.0
mp-4798,Sc(AlC)3,0.038700000000000005
mp-50,Ta,0.0
mp-504630,InTeCl,1.6633
mp-504909,Ni2SnP,0.0
mp-505171,NaTiCuS3,0.155999999999999
mp-505345,SrV2(P2O7)2,2.121299999999999
mp-505554,Sc(FeSi)2,0.0
mp-510482,Er(Ni2As)2,0.0
mp-5173,Ce(SiAu)2,0.0
mp-5221,HfAlCo2,0.0
mp-540798,S3(NO7)2,1.4221
mp-541814,RbCoF3,0.0
mp-542011,Cs4Ti3S14,1.2347000000000001
mp-5451,Er(FeGe)2,0.0
mp-545506,GdZnPO,0.5395000000000001
mp-5493,PrSi2Ni,0.0
mp-552738,TmBi2IO4,1.411299999999999
mp-553909,Tl2(SeO3)3,2.1345
mp-554852,Y2Te5O13,2.9904
mp-556074,K2Cu3(SeO3)4,0.09149999999999901
mp-558484,Nd2Te3MoO12,3.0616
mp-558886,K2Ce(NO3)6,1.3671
mp-558944,Tl2Cu3(SeO3)6,0.1713
mp-558997,SmMoClO4,2.9808
mp-559530,Ti5(PO5)4,2.8913
mp-559580,SrV2(PO5)2,1.8276
mp-559744,KV(IO4)2,2.7049000000000003
mp-559764,Nd3Si2ClO8,4.3828
mp-559811,K6U2(Cu4S5)3,0.555399999999999
mp-560028,UTe6(OF5)6,2.2652
mp-560635,Cs2MoS4,1.7727
mp-5626,K3SbTe3,1.7117
mp-567067,Ba7Al4Ge9,0.0
mp-567130,Nd(SiIr)2,0.0
mp-567314,ErNi,0.0
mp-568595,Re4Si7,0.028500000000001004
mp-569001,Sr2LiCoN2,0.2622
mp-569095,Rb3Bi,0.0
mp-569258,Ta4Se9I8,0.8829
mp-569406,TmZn2,0.0
mp-569494,SmMg2Ni9,0.0
mp-569535,Ca2Bi,0.05279999999999901
mp-569883,Rb2(PSe2)3,1.4027999999999992
mp-569984,Cs3Au2Br11,1.1427
mp-570042,PrAlPt,0.0
mp-570225,NbAsPCl13,2.4431000000000003
mp-570820,La4CdRu,0.0
mp-570990,Cs2MoCl6,0.0
mp-571103,In5AgSe8,0.583299999999999
mp-571434,La(AsPd)2,0.0
mp-578953,YbZr6(PO4)9,0.0
mp-581301,Li2MgMn3O8,1.8907
mp-5992,LaB2Ir2C,0.0
mp-600480,Y12Ni6Pb,0.0
mp-605854,Gd3Co11B4,0.0
mp-615,YMg,0.0
mp-615754,RbCuPdF5,0.0
mp-621132,PrInAu,0.0
mp-6226,NaSn4(PO4)3,3.739199999999999
mp-624243,Fe6W6C,0.0
mp-625381,V2H3O5,1.5387
mp-6330,RbUN3O11,2.4153000000000002
mp-636253,GdCu5,0.0
mp-638690,Li2Y5In9,0.0
mp-641183,Ce4Te3N2,0.0
mp-644311,CuPt,0.0
mp-645172,CsAs2Se3,1.3899
mp-646007,Cs2Tb6Te7N2,0.7558
mp-646669,P28Pb5I2,1.0279
mp-647243,Tm2Ga10Os3,0.0
mp-651907,Nb6InCl15,0.872799999999999
mp-667326,K5InO4,2.0401
mp-6685,Cr4FeCuS8,0.0
mp-669389,Sr3InRhO6,1.8304
mp-672187,Pr2Pd2Pb,0.0
mp-676411,Sr9U9O34,0.030100000000000002
mp-676909,NaEu2Cl6,0.0
mp-683990,Na3Mg(BO2)5,4.5905000000000005
mp-684620,Nb25S48,0.0
mp-685810,AsN2F7,3.5131
mp-697180,Mg3In,0.0
mp-699453,RbAs2H5O8,3.8425000000000002
mp-6996,SmB6,0.0
mp-704459,Na2Cr2O7,2.5252999999999988
mp-726,SeO2,3.3556
mp-7379,TlCdSb,0.0
mp-740,NdTe3,0.0
mp-754112,CeBrO,0.0
mp-754217,SmIO,3.6664
mp-755094,Li2FeO2,1.7921
mp-755292,Cs2BeO2,2.8121
mp-759749,KFeO2,0.0
mp-759887,Sr9(NiO3)7,1.2902
mp-764063,Li2CoO2F,0.681199999999999
mp-767165,K2LiVS4,1.5288
mp-767171,Li5(NbS2)7,0.0
mp-769032,Li3NbS4,1.4086
mp-772156,ErAsO4,3.599199999999999
mp-772838,Er(ReO4)3,3.8063000000000002
mp-774920,LiFeSbO4,1.0421
mp-776200,GdAsO4,3.4877000000000002
mp-777460,MnPO4,0.6785999999999991
mp-7878,Ca(AgGe)2,0.0
mp-8044,V2PC,0.0
mp-8122,ErCuSi,0.0
mp-8220,LiTb(CuP)2,0.0
mp-8447,K5Ti3F14,0.19130000000000003