material_id,pretty_formula,band_gap
mp-971819,YLuIn2,0.0
mp-973572,La2TlHg,0.0
mp-974381,Rh2S3,0.43170000000000003
mp-975031,RbBeH3,3.351499999999999
mp-975612,GdEr3,0.0
mp-977371,PW4Cl11,0.5707
mp-977384,ZnSiRh2,0.0
mp-977414,ZnCu2SiS4,1.2822999999999989
mp-977551,ErLuMg2,0.0
mp-978537,SmHoZn2,0.0
mp-979261,TiPd,0.0
mp-979420,YErIr2,0.0
mp-982370,Na,0.0
mp-989514,Cs2NaSbCl6,3.1285
mp-996997,LiAgO2,0.511699999999999
mp-997090,PdAuO2,0.0
mp-999130,TbNi,0.0
mvc-13559,Mg(MnS2)4,0.0
mvc-13941,CoF4,1.617
mp-1001019,Mg(ScSe2)2,1.2404
mp-1009490,O2,1.630099999999999
mp-1017540,ZrCd,0.0
mp-1018662,CeSbPd,0.0
mp-1019256,SmTlZn,0.0
mp-1019734,EuBN2,0.0
mp-1025922,Mo2WS6,1.307499999999999
mp-1027335,MoWS4,1.2043
mp-1027645,Mo3WS8,1.2524
mp-1027647,MoWS4,1.180699999999999
mp-1030119,MoWS4,1.2622
mp-1066609,VFeCoSi,0.0
mp-1067248,TiNi,0.0
mp-10771,Dy4(SiS4)3,2.3623
mp-1077107,HgO,1.2835
mp-1078519,LaSb2Pd,0.0
mp-1079232,Cs2HgPdCl6,1.297899999999999
mp-1079395,CeGe,0.0
mp-1080226,CsTlBr3,0.0
mp-1080834,Na5As4,0.0
mp-1094599,LiMg5,0.0
mp-1094804,MgCd2,0.0
mp-1095263,HoSeF,0.0786
mp-1101036,Tl9SbTe6,0.5366999999999991
mp-1101887,Y3(CuSi)4,0.0
mp-1102033,ErAsSe,0.1915
mp-1102477,Eu2Si,0.0
mp-1103194,SbSBr,1.8290000000000002
mp-1104165,MnAl12,0.0
mp-1104456,Eu2Zn2As3,0.0
mp-1105343,SrMn7O12,0.0
mp-1105643,Hf2Be17,0.0
mp-1105697,PbCO3,3.3647
mp-1105698,Ba2DyGaSe5,1.7187000000000001
mp-1106265,Ba2YGaSe5,1.7113
mp-11108,SrP3,0.061900000000000004
mp-1111919,K2NaIrF6,2.4562
mp-1112892,Cs2InBiBr6,0.8480000000000001
mp-1113491,Cs3ScI6,2.4632
mp-11287,CaHg2,0.0
mp-1147630,Li10Zn7(PS4)8,2.668199999999999
mp-1147774,Ba2NiRuO6,0.016999999999999002
mp-11638,Eu3(Cu2Sn)4,0.0
mp-1172828,WO3,1.4663
mp-1178773,YFe2,0.0
mp-1179320,SrTeO3,3.3726000000000003
mp-1180746,KMnF3,1.7405
mp-1182693,CeAgAs2,0.0
mp-1183167,AgPdAu2,0.0
mp-1183564,CaNdAu2,0.0
mp-1183581,CaTmHg2,0.0
mp-1183708,CrSnRh2,0.0
mp-1184240,ErTmMg2,0.0
mp-1184248,ErTmPd2,0.0
mp-1184273,EuBr2,1.4701
mp-1184428,Gd2CuOs,0.0
mp-1184618,Ho2TlHg,0.0
mp-1184638,HoAl3,0.0
mp-1184966,Li2CdPt,0.0
mp-1184976,Li2CdAg,0.0
mp-1184983,Li2CdBi,0.0
mp-1184985,Li2InPb,0.0
mp-1185833,MgAg5,0.0
mp-1186251,Nd2Co3Ge5,0.0
mp-1186901,Re,0.0
mp-1187317,Sr4Nb2O9,3.5875
mp-1187432,Ti2CoMo,0.0
mp-1187686,TmLu3,0.0
mp-1187828,YbGdCd2,0.0
mp-1188712,TiGeRu,0.0
mp-1188728,CdI2,2.3742
mp-1189516,Na3ScCl6,4.0379
mp-1189825,Tb6RhBr10,0.0
mp-1189870,Ca5Ga3,0.0
mp-1190046,Sb2Au(XeF6)2,0.513
mp-1190744,Ba3GdInS6,1.9957
mp-1190760,Ta3Al2C,0.0
mp-1190901,VZn2IO7,2.7456
mp-1191023,Bi3Te4(ClO2)5,2.549499999999999
mp-1191262,Ga9Ir2,0.0
mp-1192954,Nb2Pt,0.0
mp-1193079,NdCu6,0.0
mp-1193205,Zr6Ga16Rh7,0.0
mp-1193869,Co6Mo6C,0.0
mp-1195003,B3Pb6O10F,2.768799999999999
mp-1195022,UPCl5O2,0.41989999999999905
mp-1195528,Rb2Th(MoO4)3,3.6599999999999993
mp-1196191,BNF8,3.077
mp-1197560,Ga8Sb7Te8Cl29,1.476099999999999
mp-1197880,ErAgS2,1.412099999999999
mp-1198358,B2Pb6WO12,2.558799999999999
mp-1198944,CsP2H5O8,5.5222999999999995
mp-1198984,Fe3P3PbO13,0.577
mp-1199006,Tb2HfS5,1.1673
mp-1199961,Li2V2(PO4)3,0.0018000000000000002
mp-1201278,K2P2PdS6,1.230999999999999
mp-1201800,PrTmS3,0.6419
mp-1201907,Ba20Hg103,0.18029999999999902
mp-1201973,Gd3InS6,1.090599999999999
mp-1202105,K3AsS4,2.0106
mp-1202541,Bi8(MoO7)3,2.5347
mp-1202988,Rb2In3F11,3.7346
mp-1203076,Tm4Ga21Ni10,0.0
mp-1204039,CsSb,0.5215999999999991
mp-1204184,Mn5As4(HO2)10,1.7242000000000002
mp-1204595,Gd4Si2S3O7,1.296699999999999
mp-1205097,NaFe7(PO4)6,0.48200000000000004
mp-1205333,CaTiGeO5,2.707
mp-1206510,Zr6NiSn2,0.0
mp-1206784,Tb2CdNi2,0.0
mp-1207065,Ba2TbTaO6,3.371
mp-1207585,Zn10Cu(B4Rh9)2,0.0
mp-1208328,TcF6,0.0
mp-1208367,Th3Co4Sn13,0.0
mp-1208423,TbCrGeO5,2.7995
mp-1208773,Sr2TlBr5,3.9117
mp-1208827,SrMgV2O7,2.774
mp-1208950,SmMn6(Sn2Ge)2,0.0
mp-1209396,Pr2SiS5,2.4432
mp-1209660,Rb2Zn2(MoO4)3,3.595399999999999
mp-1210261,NaCr2FeO8,1.73
mp-1210629,Mg2Ta2Mn2O9,2.9982
mp-1211155,La3(Al2Si3)2,0.0
mp-1211316,KV2AgO6,2.1557
mp-1211323,La2Si3Rh,0.0
mp-1211326,KSmTiO4,2.3472
mp-1212281,NaGaGeO4,3.1083
mp-1212287,Ho3B7Mo,0.0
mp-1212666,Ga5CuSe8,0.40090000000000003
mp-1212839,Eu6Ni20P13,0.0
mp-1212857,Eu(MgGa)2,0.0
mp-1212877,Eu3V2O7,0.0
mp-1213172,CsTm(MoO4)2,3.559199999999999
mp-1213687,CsCoPO4,3.091999999999999
mp-1213716,Cs2LaNb2O7,0.0
mp-1215186,ZrTiCo4,0.0
mp-1215208,ZrTi3As2,0.0
mp-1215981,YErNi2,0.0
mp-1216305,VSb(SeO3)4,1.399299999999999
mp-1216381,VCu3(TeSe)2,0.7440000000000001
mp-1216412,Zn11Cu(MoO4)12,0.9294
mp-1216612,TlIn5S8,1.567699999999999
mp-1216657,U2PS,0.0
mp-1216829,V12Ga(GeS12)2,0.0
mp-1216997,V(Cr7S10)2,0.0
mp-1217017,TiAl6Mo,0.0
mp-1217127,Ti2MnFeO6,0.0
mp-1217141,Ti4Al2CN,0.0
mp-1217182,Tl5Re6Se8Cl7,2.016
mp-1217273,ThAl2Ni3,0.0
mp-1217292,Ti3TePb4O13,1.3832
mp-1217410,Ti27CuP16,0.0
mp-1217471,TbPaO4,2.6289
mp-1217833,TaTl6VS8,2.1212
mp-1218120,Ta3C2,0.0
mp-1218299,SrEu(PPt)2,0.0
mp-1218353,SrCaU2O8,2.0846999999999998
mp-1218468,Sr7Ca(IrO6)2,0.0
mp-1218594,Sr5Fe4MoO15,0.0
mp-1218896,Sr10Ti(RuO5)4,0.0
mp-1218958,SnPb4Se5,0.276699999999999
mp-1219019,SmGa3Pt,0.0
mp-1219252,ScTlF6,3.9839
mp-1219848,Rb(WO3)4,0.0
mp-1220041,PrGdZn2,0.0
mp-1220176,Pr2InCuS5,0.8997
mp-1220287,Nd2Mn3FeSi4,0.0
mp-1220497,NbV(Cu3Se4)2,1.0128
mp-1220514,Nb5Cr(B2Ru5)2,0.0
mp-1220816,Nb2V3(Cu3S4)5,1.120299999999999
mp-1220981,Na5H7(Se2O9)2,3.3434
mp-1220992,NaP2W7O25,0.944399999999999
mp-1221403,Na(WO3)3,0.0
mp-1221503,MnZnSe2,0.265899999999999
mp-1221886,MnCd(GaSe2)4,1.0457
mp-1221953,MgNiO2,3.8377
mp-1222014,Mn3Zn(IO3)8,2.5881
mp-1222193,Mg4CuNi,0.0
mp-1222703,LaSmB12,0.0
mp-1222838,LaYNi10,0.0
mp-1222902,LaEuB12,0.0
mp-1222939,LaCeBe26,0.0
mp-1223128,LaTi6Bi7O24,2.471299999999999
mp-1223255,La(SmB8)3,0.0
mp-1223357,KRb(Fe2S3)2,0.0
mp-1224328,HfNbB4,0.0
mp-1224876,GaAgSnSe4,1.239999999999999
mp-1225066,GdErAl6,0.0
mp-1225828,Eu2(AlAg)5,0.0
mp-1226985,Cd2In3Ag3Te8,0.138299999999999
mp-1227045,CaH2Pd,0.0
mp-1227151,CaSmMn2O6,0.0
mp-1227166,CaNdMn2O6,0.0013999999999990001
mp-1227612,La9In5Se21,1.084299999999999
mp-1227735,BaSr(FeO3)2,0.0
mp-1227977,Ba6Br2N3Cl,1.147399999999999
mp-1228044,Ba4ZrNb9O18,0.0
mp-1228119,BaPb3(NO3)8,3.6249000000000002
mp-1228174,Ba7Ti2Nb4O21,2.563599999999999
mp-1228370,Ba2SrB18,0.092699999999999
mp-1228435,Ba3Bi2PbO9,0.0
mp-1228480,Ba8Si43Ni3,0.028699999999999
mp-1228832,AlNi6Ge,0.0
mp-1228905,Al2FeCo,0.0
mp-1229060,Al(V4Ge)3,0.0
mp-1229098,Cs3BAsP,1.5632000000000001
mp-1229114,Al(V4Sn)3,0.0
mp-1232369,MgCdTe2,1.4522
mp-1247754,Ca3UN4,1.3231
mp-12630,MgSeO4,2.9057
mp-1275198,Nb2Co4O9,2.0303
mp-1287553,SrLaCoO4,1.3515000000000001
mp-1302830,V4OF11,1.7553
mp-1303638,V4OF11,1.8285
mp-1303832,LiV3Zn2O8,1.230999999999999
mp-1306933,CoBi6(SO8)2,2.3034
mp-13123,LaGe3Rh,0.0
mp-13486,LaCoCu12,0.0
mp-1372,Cd3As2,0.0015
mp-14089,TlCuS2,0.0
mp-14216,Ga8(Pb3O7)3,2.6963
mp-14245,Dy2Si5Rh3,0.0
mp-15802,Tm2MgSe4,1.4035
mp-15957,Sc15C19,0.0
mp-16227,Zn3Ni2Ge,0.0
mp-1639590,Mg10FeO11,3.119499999999999
mp-16480,Al3Au8,0.0
mp-16796,Sr2GdRuO6,0.258399999999999
mp-16894,Cr7(PO4)6,0.7711999999999991
mp-17335,ErAg(WO4)2,3.196599999999999
mp-17399,Ba5Sb4,0.292199999999999
mp-17757,Sr5Ge3,0.0
mp-18233,Na5VO5,2.2396
mp-18729,V2Co(PO5)2,0.075599999999999
mp-18799,YbVO4,0.0
mp-18913,Ba3Cr2O8,0.0
mp-18965,BaCoO3,0.0
mp-19197,Ba3CrO5,1.535199999999999
mp-19347,CaV3O7,2.6273
mp-19520,NdNi(BO2)5,3.8165
mp-2019,LaRu2,0.0
mp-20395,VAsRh,0.0
mp-20741,ReO3,0.0
mp-21385,In3Ni2,0.0
mp-21584,Ta11(CoSe4)2,0.0
mp-21666,Nb3(Fe10B3)2,0.0
mp-21762,Na2MnGaF7,2.7127
mp-23097,K2Os(Cl2O)2,1.759199999999999
mp-23642,VBiPbO5,2.9306
mp-23955,CuH2SeO5,0.0
mp-24053,AgH2ClO5,2.8331
mp-24161,TiH2,0.0
mp-2439,ZrNi5,0.0
mp-25294,VP2O7,1.5518
mp-26021,LiCoPO4,2.9248000000000003
mp-26114,Ti(PO3)4,2.770299999999999
mp-26977,LiMn2P3O10,3.7880000000000003
mp-27451,Tl3PbBr5,3.0874
mp-27575,Te5(O2F11)2,2.8665000000000003
mp-27808,Te6Cl2O11,2.9285
mp-2812,HoFe5,0.0
mp-2843,SnF2,3.397999999999999
mp-28470,Ta7(Te12I5)2,0.0
mp-29591,Sb3ClO4,2.7136
mp-29597,LaBN2,2.225399999999999
mp-29777,Er2Ge5,0.0
mp-30251,YAuO2,2.7001
mp-30336,Al4W,0.0
mp-30752,La2Mg17,0.0
mp-31070,As8S9,1.722
mp-31256,U(SbO3)2,1.2843
mp-31467,Ga3Pd7,0.0
mp-32528,Li3V3(PO4)4,2.0374
mp-3392,Ba(TlHg)2,0.0
mp-4431,Ag3AsS3,1.4941
mp-4909,V2NiS4,0.0
mp-4941,Sr2SnO4,2.716499999999999
mp-504194,LiMoPO5,1.4152999999999991
mp-510243,Eu(BS2)2,1.0973
mp-531981,Rb2(WO3)9,0.0
mp-5367,K5SnSb3,0.5166000000000001
mp-541156,Ge4PbO9,3.5208999999999993
mp-541272,LiGe2(PO4)3,3.385
mp-541426,Ba6(NiO3)5,0.009799999999999
mp-541436,NbTl(PO4)2,2.8847
mp-541860,TiAs2H4O9,2.941799999999999
mp-542100,K4Nb2Si8O23,3.8178
mp-542328,Ce5Ga3,0.0
mp-542428,Ba11Sb10,0.0
mp-543052,Tm5Sb3,0.0
mp-554053,SrGaBO4,3.7453000000000003
mp-554066,Ba3Lu2Zn5O11,2.290199999999999
mp-554190,CaZr4O9,3.8367
mp-554193,NaGa(TeO3)2,3.0138
mp-554212,Tl2Ni3S2,0.0
mp-554408,CsAgSb4S7,1.7759
mp-554564,Ta2Bi4Br7O2,0.726799999999999
mp-554944,TiSO5,2.1074
mp-555074,Hg3AsS4Br,1.5311
mp-555266,Na2VS2O9,2.6801
mp-555592,CsTaPS6,0.0
mp-5560,Cd3(BO3)2,1.4576
mp-556145,NaAsO2,3.6419
mp-556235,CaCO3,5.008599999999999
mp-556415,LiMnO2,0.0
mp-558279,Tl2Te3O7,2.9119
mp-558285,GaBiO3,2.0453
mp-558429,NaFe4(MoO4)5,1.261599999999999
mp-558475,K4Nb2S10O,1.5315999999999992
mp-559373,Ge4PbO9,3.5774
mp-559752,CsZnPO4,3.965
mp-559770,Nd4Ga2O9,3.601199999999999
mp-559838,HoMoO4F,3.7685
mp-559916,Na17Al5O16,2.4425
mp-560239,K3Ti3(PO4)5,2.5787
mp-560756,Th(MoO4)2,3.598
mp-561028,K2Cr2O7,2.7755
mp-561228,Rb4Te8O23,1.2081
mp-561288,K3LiIrO4,0.0
mp-561473,CaTaAlO5,3.8659
mp-561599,Ba3Nb2CoO9,1.6989
mp-561619,CsLuS2,2.2054
mp-566293,K3Gd5(PO4)6,2.802699999999999
mp-567097,LiCu2Ge,0.0
mp-567178,PbI2,2.447
mp-567269,TeI4,1.830099999999999
mp-567584,Hf2Te,0.0
mp-568315,CdCu2,0.0
mp-568386,Ag10Te4Br3,0.835199999999999
mp-568634,Yb3(Ga2Ge3)2,0.0
mp-569200,Eu(Al2Fe)4,0.0
mp-569404,Ni4B3,0.0
mp-570608,ZrCr2,0.0
mp-570696,Pr5Sn3,0.0
mp-570767,PrBC,0.0
mp-579552,La2CO5,3.933099999999998
mp-581165,Cs2Xe(BrF7)4,2.9129
mp-581173,Cs10Si7O9,1.3432
mp-582794,Nd3Ti4O12,0.0
mp-583454,Nb2Bi2PbO9,2.359099999999999
mp-5869,Ca2CuO3,0.0
mp-6072,TmMn6(GaSn2)2,0.0
mp-614997,SnS16(Cl2O)2,2.0416
mp-619279,In2PbS4,1.4901
mp-623787,Cs2K2B10O17,4.7867000000000015
mp-624399,CdI2,2.3811
mp-624400,CdI2,2.3782
mp-624406,CdI2,2.3498
mp-624417,CdI2,2.3529999999999998
mp-624418,CdI2,2.3456
mp-6259,SrLi2Ta2O7,2.2312
mp-641911,Ce(In2Pd)2,0.0
mp-642358,Ba4Pr(RuO4)3,0.0
mp-644302,NaHSeO4,3.4608
mp-644332,KMnF3,2.6922
mp-647489,CdI2,2.384
mp-650015,P6N7Cl9,3.8766
mp-651121,Cs3HgI5,2.035
mp-669334,CdI2,2.3756999999999993
mp-669357,CdI2,2.3545
mp-669358,CdI2,2.3723
mp-672195,CeAgAs2,0.0
mp-672335,YIn2Ni9,0.0
mp-674849,TlBiF4,3.8236
mp-675462,Mo2RuSe4,0.48150000000000004
mp-676609,Ga6SnTe10,0.7984
mp-677055,ScCuSe2,0.6572
mp-680055,CdI2,2.3812
mp-680092,CdI2,2.3471
mp-680093,CdI2,2.351
mp-680094,CdI2,2.375899999999999
mp-680095,CdI2,2.3417
mp-680112,CdI2,2.3482
mp-680113,CdI2,2.3441
mp-680114,CdI2,2.355299999999999
mp-680144,CdI2,2.3419
mp-680145,CdI2,2.3355
mp-680146,CdI2,2.350799999999999
mp-680148,CdI2,2.3384
mp-680196,CdI2,2.3569
mp-680306,Rb14Si10O17,1.4054
mp-683906,Yb5Cu11Sn8,0.0
mp-684022,LaTlGeSe4,1.302
mp-684805,Mn14Sb13,0.0
mp-685542,La2(WO3)19,0.0
mp-693,Pr3Tl,0.0
mp-696701,HPbClO,3.3406000000000002
mp-704851,Fe2(MoO4)3,2.4804
mp-705830,Rb5(WO3)18,0.0
mp-707784,AlH18(NO6)3,3.395
mp-715923,WO3,1.1701
mp-7167,SmRh3C,0.0
mp-722516,Zn2PHO5,3.245199999999999
mp-7228,ReO2,0.0
mp-7285,HfNi3,0.0
mp-735567,VAs2H4O9,2.5663
mp-752418,La2Se2O,1.7863000000000002
mp-752643,NaTi2O4,0.0
mp-753202,Li5CuF8,0.6945999999999991
mp-753330,Ba2MnO4,0.0
mp-753702,LiVSiO4,2.0592
mp-754959,CrAgO4,0.0
mp-755540,Li2VCrO4,0.9770000000000001
mp-755632,LiFeF4,3.6188000000000002
mp-755805,Sc(CuO2)2,0.0
mp-755934,LiMnSnO4,1.0425
mp-755998,Zr3N2O3,2.6763
mp-757063,LiNi2O3,0.0
mp-757076,SnP2O7,3.8744
mp-757198,Li2VOF5,2.8346
mp-757607,Na(WO3)10,0.0
mp-759516,Na2FeO3,0.0
mp-760130,Ba8Mn8O23,1.037399999999999
mp-764934,Na(NiO2)2,0.0
mp-765687,VOF,1.252999999999999
mp-766121,LiVSiO4,2.0519
mp-771256,Sr3(AsO4)2,3.5442
mp-772748,Ba2P6O17,5.2547000000000015
mp-774387,V4OF11,1.4979
mp-775822,Zr2N2O,1.6777000000000002
mp-776363,Zr2N2O,1.5557
mp-780763,V2OF5,1.5431
mp-781049,V4OF11,1.4506000000000001
mp-850923,TiV(PO4)2,0.1509
mp-8611,Li8CeO6,2.5385
mp-861991,PaMn2Al,0.0
mp-862692,DyHoMg2,0.0
mp-862940,Er2CuPt,0.0
mp-863737,Ho3In,0.0
mp-864799,HoLuMg2,0.0
mp-8652,SF6,5.9243000000000015
mp-865210,TmLuMg2,0.0
mp-865217,YbThRh2,0.0
mp-865907,LiZn3,0.0
mp-867308,InCuPd2,0.0
mp-867627,Ba4(PtO3)3,1.5659
mp-867705,Na3(CoO2)5,0.3054
mp-867725,Tb3SbO7,2.9753
mp-8787,Ho2NiAs2,0.0
mp-898,HoAl3,0.0
mp-9089,CsTmS2,2.1913
mp-9202,Cs2ZrCu3F12,0.0
mp-973217,SbSI,1.529199999999999
mp-973894,LaNdZn2,0.0
mp-974523,NdErTl2,0.0
mp-976114,Li2CdHg,0.0
mp-976220,NaCdHg2,0.0
mp-979176,Tm2AgHg,0.0
mp-979431,YLuZn2,0.0
mp-983459,HfZr,0.0
mp-985437,ErLu3,0.0
mvc-12368,CaTi2O5,2.927799999999999
mp-1001581,LiC6,0.0
mp-1005761,SmGd3,0.0
mp-1013900,TiSCl,0.0
mp-10173,Li,0.0
mp-1018807,MoSe2,1.303599999999999
mp-1021465,Na2ZnSe2,2.1643
mp-1025689,Mo(WS3)2,1.2721999999999989
mp-1025911,Mo2WS6,1.2505
mp-1026034,Mo(WS3)2,1.1932
mp-10264,NiTe,0.0
mp-1027269,MoWS4,1.1503
mp-1027273,MoW3S8,1.1292
mp-1027569,Mo3WS8,1.242299999999999
mp-1029246,MoW3S8,1.197099999999999
mp-1037175,Mg30CoNiO32,2.7986
mp-10552,RbBSe3,1.5900999999999992
mp-1063245,Sr2Rh,0.0
mp-1072086,TaS2,0.0
mp-1076445,Sr8MnFe7O24,0.0
mp-1078602,ZrIn3,0.0
mp-1079448,PrCdGa,0.0
mp-1079572,LaNiSb2,0.0
mp-1079778,Sr2ZnWO6,3.5814999999999992
mp-1080123,Ba2LaIrO6,0.0
mp-1080448,AlPt3,0.0
mp-10925,Pr2Se2O,2.073799999999999
mp-10932,ErSF,1.3255
mp-1094074,ScFe2BO5,3.481299999999999
mp-1095595,SbSI,1.7025000000000001
mp-1101135,Ti2(InBr3)3,0.0
mp-1101258,TiS2,0.0
mp-1101754,Ti4H7,0.0
mp-1101884,CaNi5,0.0
mp-11027,Cs3Hg20,0.0
mp-1104104,Be12Fe,0.0
mp-1105749,Y3Si3Rh2,0.0
mp-1105844,Sr3Hg,0.0
mp-1106021,Tm2Ge5Rh3,0.0
mp-1106078,Gd(BRh)4,0.0
mp-1106389,KBiF6,2.6310000000000002
mp-1135,NbPd3,0.0
mp-11412,ScGa2,0.0
mp-1147634,Li10Zn7(PS4)8,2.6445
mp-1157,TaNi2,0.0
mp-1173281,Sr2FeMoO6,0.3773
mp-1176,TbTe,0.0
mp-1176484,Na2FeO3,0.189699999999999
mp-1178085,Li11Fe5(OF11)2,2.3197
mp-1179728,RbF3,2.153
mp-1180758,LaTe2,0.0
mp-11809,TiAl2,0.0
mp-1182,DySi,0.0
mp-1183137,Ag3Au,0.0
mp-1183206,Ag3Pd,0.0
mp-1183274,Ba2MgIn,0.0
mp-11834,CuNiSb2,0.0
mp-1183430,CaMg2,0.0
mp-1184136,DyYMg2,0.0
mp-1184435,Gd2CuAu,0.0
mp-1184787,HoErMg2,0.0
mp-1184930,HoLu3,0.0
mp-1185068,LaLuIn2,0.0
mp-1185195,La2InAg,0.0
mp-1185260,LiNi2Sb,0.0
mp-1185367,LiInHg2,0.0
mp-1185844,MgAu2,0.0
mp-1186519,PrEuAg2,0.0
mp-1186561,PmCd3,0.0
mp-1187244,TaP,0.0
mp-1187351,TbHoIr2,0.0
mp-1187615,YbHoCd2,0.0
mp-1187639,Tm2PdRh,0.0
mp-1187725,Y2TlZn,0.0
mp-1187790,Tl,0.0
mp-1187928,Yb2ZnAg,0.0
mp-1188069,Zr2Ni7,0.0
mp-1188482,Tm2InAu2,0.0
mp-1189034,Cs(TeO3)2,0.0
mp-1189581,Nd2Ge5Rh3,0.0
mp-1189793,TiPt3,0.0
mp-1190002,Pr2Co3Ge5,0.0
mp-1190258,Yb3Pd,0.0
mp-1190444,ErReB4,0.0
mp-1190623,Ba2ZnS3,2.0968
mp-1191029,PrCO4,0.0
mp-1191192,Sm4Ge7,0.0
mp-1191694,Sr2LiGe3,0.0
mp-1192163,Ba3(Ge4Rh)4,0.0
mp-1192826,CuH6SO7,0.8018000000000001
mp-1193048,Ce3TiAlS7,0.0
mp-1193308,Tm6Fe23,0.0
mp-1193815,Ho2PbS4,2.2585
mp-1193918,Hf9PW4,0.0
mp-1194047,YbZn13,0.0
mp-1194594,Ta4PbO11,3.3176
mp-1194599,KTaV2O8,2.714
mp-1195102,RbAg5(PS4)2,1.162499999999999
mp-1195357,K4Yb2Si8O21,0.0
mp-1195632,ErTl2P2Se7,1.0722
mp-1195769,NaIn3S5,1.2398999999999991
mp-1196201,Eu5B3O9F,0.10949999999999901
mp-1196327,Ho2(MoO4)3,3.6675
mp-1196419,Ta3Bi7O18,2.6195
mp-1197016,Lu4Ga21Ni10,0.0
mp-1197102,Rb4WS3O14,3.3741
mp-1199144,PrErS3,0.639099999999999
mp-1199321,K5In3P6Se19,1.0646
mp-1199431,Ho2ZrS5,1.2537
mp-1200210,BaV2SeO8,2.0812
mp-1201197,Tb6Al43Mo4,0.0323
mp-1201581,Tb2(Ni2B)5,0.0
mp-1202580,TaVO5,2.2553
mp-1202741,Cs3HgBr5,2.484
mp-1202993,Cu3P4Pb3O16,0.5738999999999991
mp-1203368,Zn3As2,0.146399999999999
mp-1204734,V2Pb2Se2O11,2.5376000000000003
mp-1204948,La11Hg45,0.0
mp-1205094,SmAgS2,1.9787000000000001
mp-1206565,Pr2CdAu2,0.0
mp-1207036,Dy2Ni2Sn,0.0
mp-1207418,ZrFeAs,0.0
mp-1207469,ZnCuAsO5,0.45270000000000005
mp-1208027,Tm2(Ga3Ru)3,0.0
mp-1208100,Tm3Fe2Ge3,0.0
mp-1208144,Tm2Mn17C3,0.0
mp-1208305,Tl5V3O10,2.5544000000000002
mp-1208446,Tb6Co2Sn,0.0
mp-1208658,TaP4(S2Cl)5,1.6544999999999992
mp-1208824,Sm6Nb4Al43,0.0
mp-1208832,SmLuSe3,0.7935000000000001
mp-1209460,Rb2Mo(OF2)2,3.6158
mp-1209812,P3(PbO3)4,0.0
mp-1209987,NdCu5Sn,0.0
mp-1210232,NaMo3(PO7)2,2.117
mp-1210539,NdIn2Cu9,0.0
mp-1210885,NdZr6(PO4)9,3.6888
mp-1210933,LiV(WO4)2,1.840899999999999
mp-1211353,KSm(WO4)2,3.758899999999999
mp-1211922,K(InGa)2,0.0
mp-1212218,La8Sb2Se15,1.5416999999999992
mp-1212275,Ho5CuPb3,0.0
mp-1213317,Cu4AsClO6,0.0
mp-1215224,ZrNbFe4,0.0
mp-1215512,Yb4SmS5,0.0
mp-1216358,VCu3Te3Se,0.6093000000000001
mp-1216824,Tl8SnTe6Pb,0.4298
mp-1216863,TiNb(BiO3)3,2.4484
mp-1217165,Ti2V2GaS8,0.0
mp-1217315,ThUBe26,0.0
mp-1217549,TbInGe2O7,2.7287
mp-1217806,Tb2GdGa5O12,3.5199
mp-1217847,SrTi4Bi4O15,1.819999999999999
mp-1217901,TaNbW,0.0
mp-1217974,TaB4W3,0.0
mp-1218227,SrLaCuSe3,1.4057
mp-1218255,Ta2Ti2Ni2C,0.0
mp-1218397,Sr5ZnCd4,0.0
mp-1218404,Sr3CaAl8,0.0
mp-1218531,SrAl12O19,4.397299999999999
mp-1218938,SnPbSe2,0.12360000000000002
mp-1219632,Rb6Mn2CrCl12,0.0
mp-1219799,Ni6SnSb,0.0
mp-1220100,NdSmFe4Co13,0.0
mp-1220421,NdTi12(Bi5O16)3,2.1954000000000002
mp-1220691,Nb2CuS4,0.0
mp-1221906,Mn2As2O7,0.0
mp-1222011,MgCdTe2,1.373499999999999
mp-1222354,LiInO2,1.847799999999999
mp-1222762,LaPrAl4,0.0
mp-1222806,LaGdB12,0.0
mp-1223029,LaThPb6,0.0
mp-1223233,La2VFeO6,1.255199999999999
mp-1223371,La2Al3GaPd4,0.0
mp-1223762,K6Pd3(BrCl2)4,1.2605
mp-1223847,K2PdBrCl3,1.6589
mp-1223861,K2PdBr3Cl,1.573999999999999
mp-1223868,HoCdIn,0.0
mp-1224102,InCuSnS4,0.3921
mp-1224223,In11S16,0.0
mp-1224413,H3Pd4,0.0
mp-1224677,Hf4NiRh,0.0
mp-1224768,Fe3NiAs8,0.0
mp-1224905,Gd7Y5Nb4O28,2.4301
mp-1224951,FeNiAs4,0.0
mp-1225305,EuPaO4,0.0
mp-1225383,Dy2YTaO7,3.3859999999999992
mp-1225511,Eu2Ni3Sb4,0.0
mp-1225920,Cu12As4S13,0.0
mp-1226542,CeYCu4,0.0
mp-1226613,CeGa3Cu,0.0
mp-1227144,CaNdMn2O6,0.0
mp-1227153,CaLaGa3O7,3.2689
mp-1227486,BiSbS3,1.3483
mp-1227727,BaSr4(FeO3)5,0.0
mp-1227973,Ca2ZnSb2,0.0
mp-1228160,Ba3P4O13,5.127499999999999
mp-1228869,Ba5BiPb4O15,0.0
mp-1239181,Rb(CrS2)2,0.0
mp-1245993,Sr3RhN3,0.0
mp-127,Na,0.0
mp-12700,NbPt3,0.0
mp-1272324,Ta2CrO6,1.0468
mp-1272386,Mn(HO)2,2.1067
mp-1273130,Mg3FeO4,2.8775999999999993
mp-1273504,SrLaCoO4,1.3495
mp-1275124,Na2FeO3,0.3879
mp-1275839,CoBi6(SO8)2,2.3186
mp-1278469,Sr2NbCoO6,0.9824
mp-1291532,Sr2NbCoO6,1.056699999999999
mp-12924,KLaSiS4,2.686899999999999
mp-1304584,Li2TiV3O8,1.0657
mp-1307659,Li2Mn3GaO8,0.7342000000000001
mp-1308804,Li2V3WO8,1.5538999999999992
mp-14513,Ni8P3,0.027200000000000002
mp-1543,Ge2Pt,0.0
mp-15950,Li(SiNi)6,0.0
mp-1648259,V2OF5,1.9123
mp-16718,Al6Tc,0.0
mp-17329,PrS2,0.33539999999999903
mp-1749,CaAl4,0.0
mp-17541,KSrVO4,3.8682
mp-17868,NaAsO3,2.8641
mp-18024,Hf9BMo4,0.0
mp-18124,KAlCuF6,0.1114
mp-18142,Ca(Al5Cr)2,0.0
mp-18197,Na2BeGeO4,3.7169
mp-18287,Ce2(SbPd3)3,0.0
mp-19027,Na5CoSO2,1.3859
mp-19038,SrV2O6,2.8228
mp-19198,CoSO4,1.551899999999999
mp-19296,SrVSi2O7,2.8760000000000003
mp-1945,NdCu6,0.0
mp-19510,V2Cd(PO5)2,2.1523
mp-19814,NiAs2,0.0
mp-19906,Zr2InNi2,0.0
mp-19974,In2Ag,0.0
mp-20079,CaPbO3,0.9343
mp-20699,YMnO3,1.5091
mp-20756,LaTiGe,0.0
mp-2102,PrGe,0.0
mp-21030,Ti3Sn,0.0
mp-21569,HfReSi2,0.0
mp-21679,Fe7Pb7F34,0.9901000000000001
mp-2207,NbSe2,0.0
mp-2214,TmMg2,0.0
mp-23789,Mn(HO)2,2.1135
mp-238,MnPd,0.0
mp-24126,Sr3Al2(HO)12,3.885899999999999
mp-2550,NdTe2,0.0
mp-26702,LiSn2(PO4)3,3.3131
mp-27968,Li6Ge2O7,3.8132
mp-28118,AlSbI6,2.3121
mp-28122,LiGdCl4,0.9431
mp-2818,YbAu,0.0
mp-28345,Zr6CI12,0.30010000000000003
mp-28563,CsAsSe2,1.4159000000000002
mp-28611,ThTa2O7,2.741799999999999
mp-28647,AsBr5F6,1.6706999999999992
mp-28700,Fe2Pb3F12,3.1628
mp-28871,In3SnI5,2.0256
mp-29466,CeSi3N5,0.1499
mp-29832,Sm10Se19,0.2589
mp-29862,SnBr2,2.5562
mp-30047,Sn2Mo,0.0
mp-30190,UMo13P9,0.0
mp-30461,BiPd2Pb,0.0
mp-30523,Ta3As,0.0
mp-30663,Ga3Pt5,0.0
mp-30698,PrCu6,0.0
mp-30719,Mg2Hg,0.0
mp-30880,Tb2Zn17,0.0
mp-31071,Ba2Tl7Au,0.0
mp-31756,Ba2FeReO6,0.0