material_id,pretty_formula,band_gap
mp-1202177,RbNa8(GaP2)3,0.903999999999999
mp-12023,MnCu2SiS4,0.0
mp-1202750,Nd5P12Ru19,0.0
mp-1203042,Cs6Dy21Te34Cl,0.885599999999999
mp-1203135,CuTe2PbO7,0.0
mp-1203369,Ce5P12Ru19,0.0
mp-1205189,Dy11Cd45,0.0
mp-1205505,ErSiRu2C,0.0
mp-1205557,Ba2UTiO6,0.0
mp-1205595,Ba2TmMoO6,0.0
mp-1205676,NaSr2OsO6,0.0
mp-1205700,Ba2LaUO6,0.861399999999999
mp-1205780,Er7(TePt)2,0.0
mp-1205849,SmNiSn,0.0
mp-1205914,ErBiRh,0.0
mp-1206438,Rb2CuF6,0.0
mp-1206822,Pr3SnN,0.0
mp-1206941,Rb(CoP)2,0.0
mp-1206994,La3SnN,0.0
mp-1207202,La(PPd)2,0.0
mp-1207285,Ba2GdReO6,0.0
mp-1207530,Zn11(B4Rh9)2,0.0
mp-1207706,TmMnB4,0.0
mp-1207833,Yb6Al43Cr4,0.0
mp-1208009,UCd(MoO4)4,2.009
mp-1208240,Tm6InCo2,0.0
mp-1208242,Ti6Be15Cu8,0.0
mp-1208468,Tb4CdPt,0.055900000000000005
mp-1208521,Tb2CdCu2,0.0
mp-1208685,SrU(MoO4)4,2.1054
mp-1208727,Sr3Sn4Bi,0.0
mp-1209285,PrSbIr,0.0
mp-1209505,Rb3Zr6BeCl15,0.9403
mp-1209527,Pr3(Sn3Pd2)2,0.0
mp-1209530,Rb2UBr5,0.49420000000000003
mp-1209768,Pr8Sb14Pt17,0.0
mp-1209823,Ni2PPd,0.0
mp-1210056,Tb3(In3Pt)4,0.0
mp-1210068,NaErCu2F8,0.785
mp-1210209,Na4Er2(IrO4)3,0.0
mp-1210257,Na3TiF6,0.020999999999999002
mp-1210630,Nb6TlCl15,0.9510000000000001
mp-1211004,LiSm(WO4)2,3.615599999999999
mp-1211429,La3(P3Pd10)2,0.0
mp-1211876,KHf6CCl15,1.1511
mp-1212187,Hf3Ti2Ga3,0.0
mp-1212811,DyPPd,0.0
mp-1212911,Dy5(GeSb)2,0.0
mp-1213121,Dy2(Ga3Rh)3,0.0
mp-1213191,CsHo(WO4)2,3.391199999999999
mp-1213210,Dy2Au5F21,1.6704999999999992
mp-1213368,EuCu(WO4)2,0.0
mp-1214103,Ca2TaCrO6,2.8178
mp-1214542,Ba6Y2Ga4O15,3.6041
mp-1215472,YbTmS2,0.0
mp-1216698,TiSeS,0.0
mp-1217496,ThScFe6,0.0
mp-1217722,TbGd2Ga5O12,3.0657
mp-1218971,SmThN2,0.0
mp-1219325,ScMn2SbO6,2.1906
mp-1219790,Rb(IrO2)6,0.0
mp-1219951,Rb2Mo2P2O11,2.4189
mp-1220065,Rb3(Cr5Se8)4,0.0
mp-1220177,NdAlNi4,0.0
mp-1220322,NbRe,0.0
mp-1220574,Nb9TlSe12,0.0
mp-1221427,Na(V3S4)2,0.0
mp-1221800,Na2Mg3(MoO4)4,3.6737
mp-1222514,Lu(Fe5Si)2,0.0
mp-1222617,Li2ZnCu3,0.0
mp-1222798,Li14MgSi4,0.10590000000000001
mp-1222871,LaNi4Pt,0.0
mp-1223425,La6S3(OF4)2,2.5837
mp-1223754,K(Nb3Se4)2,0.0
mp-1223927,Ho2GaRu,0.0
mp-1224116,K(Zr3Te4)4,0.0
mp-1224485,Hf2Se3,0.0
mp-1224556,Hf3TiTe20,0.0
mp-1225162,EuSi3Ni,0.0
mp-1225165,Er2As7Rh12,0.0
mp-1225440,Eu2FeSbO7,0.0
mp-1225940,K30Ga9As19,0.180099999999999
mp-1226116,CoCuNiS4,0.0
mp-1226751,CeCoGe2Ru,0.0
mp-1227195,Ce3Mg2InAu3,0.0
mp-1227613,Ca4Ge3Au5,0.0
mp-1229011,AgSnSe2,0.0
mp-1232181,Pm2Se3,0.49710000000000004
mp-1232374,LaSiP3,0.539899999999999
mp-12788,Nd3Au4,0.0
mp-13240,ScInCu4,0.0
mp-13326,PrLuSe3,0.524999999999999
mp-1337,MoAs2,0.0
mp-13758,Nd4Re2O11,0.4484
mp-13831,BaCdGeS4,2.6727
mp-14133,Gd3Al5O12,3.4625
mp-14134,Lu3Ga5O12,3.3181000000000003
mp-14152,SmNbO4,3.6614
mp-14448,Ba2SiTe4,1.1372
mp-1463,LaIr2,0.0
mp-15081,Sm2Se3,0.506199999999999
mp-1540,HoTl,0.0
mp-15617,Cr5B3,0.0
mp-15812,Mn3Mo3C,0.0
mp-16598,K3TmSi2O7,3.7556000000000003
mp-16684,PrCuS2,1.3786
mp-16756,Ta3Ga2,0.0
mp-16794,Sc2Re3Si4,0.0
mp-17965,KGaTe2,1.2481
mp-17978,Rb5GeP3,0.46140000000000003
mp-18561,Ga2AsRh5,0.0
mp-18636,Ba3Sn5,0.0
mp-1864,LaP5,0.11390000000000002
mp-1867,Ta2Ni,0.0
mp-19134,CaCrP2O7,2.9385
mp-19208,La2MnCoO6,0.0
mp-193,Zr2Cu,0.0
mp-19360,LuCrO4,0.289799999999999
mp-19499,KY(MoO4)2,3.589
mp-195,HoPt3,0.0
mp-1963,NbRh,0.0
mp-19764,Pr3In,0.0
mp-19771,Dy(CoGe)2,0.0
mp-19807,Co3(SnS)2,0.0
mp-19808,Eu(ZnGe)2,0.0
mp-19989,Ce2In8Co,0.0
mp-19992,La6UO12,1.9766999999999992
mp-2027,HfCo,0.0
mp-20327,TiP2,0.0
mp-20332,GdMgPd,0.0
mp-20401,HfCuSi2,0.0
mp-20451,LaInPt,0.0
mp-20538,HoMgIn,0.0
mp-20562,CeGeAu,0.0
mp-20794,Sr2NiWO6,3.009
mp-2083,Sn2Ir,0.0
mp-20874,EuB6,0.0
mp-20952,TiNiSb,0.0
mp-21144,TbCoGe,0.0
mp-21446,BaPb3,0.0
mp-21826,UNi5Ge3,0.0
mp-21835,Cs2In2Sb3,0.7882999999999991
mp-220,ThNi2,0.0
mp-22048,Pt2PbO4,0.0064999999999990005
mp-22092,VSO5,1.5237999999999992
mp-22248,Eu(BO2)3,0.0
mp-22299,TbNiSn,0.0
mp-22631,Co2N,0.0
mp-22711,GdAl7Au3,0.0
mp-2281,SmSb,0.0
mp-229,ZrRh3,0.0
mp-23176,SbCl5,1.8399
mp-23266,GeI4,1.996
mp-23300,NdBi,0.0
mp-23396,MoNCl3,1.6837
mp-23403,SbIF5,0.5522
mp-2370,PrNi5,0.0
mp-2403,YPt3,0.0
mp-2410,SrAg5,0.0
mp-24550,MnAsH2O5,2.2829
mp-2504,RbZn13,0.0
mp-257,DyIn,0.0
mp-27163,Ga(Ag3Se2)3,0.0
mp-27180,NdSBr,2.8933
mp-27234,Cu(IO3)2,0.36759999999999904
mp-27251,Bi2TeO6,1.4188
mp-27276,Si12Ni31,0.0
mp-27629,Cs3Sb2Cl9,2.3747
mp-28531,Rb2Ta15O32,0.0
mp-28661,Ba2Cu3P4,0.0
mp-28773,Na4Ga2S5,2.4813
mp-28774,KSnF3,3.5101
mp-28805,Tl2Pt5S6,1.095499999999999
mp-2883,Sm2Sn2O7,2.9095999999999993
mp-28894,Ba2P3Pd,0.0
mp-28964,Ta4FeTe4,0.0
mp-29312,InI2,1.7858
mp-29501,Rb3AsSe16,0.9105999999999991
mp-29549,Si(PH2)4,3.9322
mp-29621,Ba5Bi3,0.0
mp-29694,KAuBr4,0.809999999999999
mp-29799,KBiO3,1.0911
mp-29871,Na4SeO5,1.3609
mp-29945,Tb2Mo4O15,3.3385
mp-30011,SbKrF7,2.4272
mp-30060,Sn5(BRh3)2,0.0
mp-30073,La(FeSb3)4,0.0
mp-30174,Ca4Al51Cr7,0.0
mp-30220,Ba3P3I2,0.0
mp-30227,Rb2WCl6,0.0
mp-30676,Zr3Ti2Ga3,0.0
mp-30726,YHg3,0.0
mp-30768,Li7Sn3,0.0
mp-30946,Ga2PdI8,1.4331
mp-31024,Sc5CCl8,0.0
mp-31281,SrSnAu,0.0
mp-3142,Ca(NO3)2,3.6398
mp-3153,Na4Ge9O20,3.0509
mp-32590,U4N7,0.0
mp-3415,Yb(SiRu)2,0.0
mp-35276,K(FeAs)2,0.0
mp-3576,HfGaCo2,0.0
mp-3650,HfCu2Te3,0.04870000000000001
mp-37297,U2PS,0.0
mp-3826,Ce(SiPd)2,0.0
mp-393,Pd16S7,0.0
mp-4088,La(FeSi)2,0.0
mp-4484,Ba(PRu)2,0.0
mp-4574,YbTaO4,0.0
mp-4794,Sm2As4O9,3.3407
mp-504934,Sc2CI3,0.568299999999999
mp-505155,UCr5P3,0.0
mp-505451,HS9N,2.3976
mp-510225,HoMn2O5,1.229
mp-5105,La(SiRu)2,0.0
mp-510641,LiFeAsO4,2.08
mp-5364,YbBO3,0.0
mp-540540,PaBr3O,1.7692
mp-540818,Tl2Ge2Se5,1.4048
mp-540914,K3MnO3,1.8512
mp-541238,KTi2(PO4)3,2.5339
mp-541283,InGaBr4,2.9039
mp-541285,Th(TeO3)2,3.6529
mp-541656,AuCl2,0.9647
mp-541832,Ba2SnS4,1.9632
mp-541915,K2Ag(AsSe2)3,1.3229
mp-541918,Na2Te4MoO12,2.629399999999999
mp-542448,Cs3GaSe3,2.0789
mp-542710,NaMn2O4,0.38610000000000005
mp-542757,EuClO,0.0
mp-542972,KNb2PS10,1.541599999999999
mp-551806,CoTeMoO6,1.848799999999999
mp-553946,CoAsS,0.0
mp-554576,Rb2In3F11,3.8288
mp-555044,DyCuS2,1.6098
mp-555143,LiCaCoF6,3.061
mp-555246,Ba3LuRu2O9,0.0
mp-555669,RbZrMnF7,2.3454
mp-556393,RbBe4(BO3)3,5.169799999999999
mp-556623,K2TiOF4,3.0224
mp-556639,DyNbO4,3.508099999999999
mp-556757,K2NaNiF6,0.0
mp-557108,Ba2Nb2TeO10,2.982999999999999
mp-557583,TlInAs2O7,3.0044
mp-558303,Ce3CuGeS7,0.0
mp-558383,Na2CrF4,1.1107
mp-558768,Ag2TeO4,0.011499999999999
mp-559182,P2IrClF6,0.8571000000000001
mp-559701,LiV2F6,0.0022999999999990003
mp-559914,K2MoCl5O,2.758099999999999
mp-559932,KTeOF3,4.212099999999999
mp-560348,K6Nb4S25,1.519299999999999
mp-560419,KZn4(PO4)3,3.4547
mp-560786,Nd10S19,0.5026
mp-561197,TaF5,5.5558
mp-561254,NaLi3GeO4,3.6606
mp-561369,K3Bi2(AsO4)3,3.33
mp-567114,Sr(BiPd)2,0.0
mp-567342,Nd4MgIr,0.0
mp-567437,Pd(Se4Cl)2,1.3419
mp-567833,EuSn,0.0
mp-568506,Pr2Ni2I,0.0
mp-568643,RbC8,0.0
mp-568805,SmNiSb3,0.0
mp-569107,CsErZnTe3,1.3865999999999992
mp-569282,LiCa10MgSb9,0.9215000000000001
mp-569593,PmMg,0.0
mp-570117,ErTlSe2,1.4024
mp-570592,Tb4CdCo,0.0
mp-583042,Ce8C8Cl5,0.0
mp-6131,Ba3Yb(BO3)3,0.0
mp-615789,Ba2(CuO2)3,0.0
mp-629690,Bi2(PbS2)3,0.565599999999999
mp-630265,U3(Si3Pd10)2,0.0
mp-633,LaSn3,0.0
mp-6389,NaLa2RuO6,0.503899999999999
mp-640045,Ti8Bi9,0.0
mp-644307,Ca(H2N)2,3.0351
mp-647385,V2Pb4O9,2.8596999999999992
mp-647813,Cs2CrO4,3.2468
mp-648414,V2PS10,1.1097
mp-672689,Hf6Co16Si7,0.0
mp-674355,Co(NiS2)2,0.0
mp-675046,Rb28(Mg3In17)3,0.0
mp-680383,V17Ge31,0.0
mp-683925,CsSb3F16,3.8894
mp-6917,TmAgSn,0.0
mp-698114,Ba2AlH7,2.9596
mp-706448,Mn14Al56Ge3,0.0
mp-721702,Zn2AsHO5,2.0109
mp-740764,Cu9P4(HO10)2,0.0
mp-754159,Na2Mn(SO4)2,3.5578000000000003
mp-755628,TaFeO4,0.22149999999999903
mp-756681,Na(WO3)9,0.0
mp-757535,Li35(RuO4)12,0.0
mp-759990,LiMnF4,2.0025
mp-761944,Li2FeCo3O8,0.2015
mp-768309,Ce2TiO5,0.0
mp-770408,Rb6Ti2O7,3.2141
mp-772047,V2SiO4,1.5873
mp-781861,Nb2CdO6,3.424
mp-8065,K2Ti6O13,2.7639
mp-8614,K3NdSi2O7,3.5564
mp-862424,Sc2TcNi,0.0
mp-862869,Pa2S3,0.0
mp-862916,PmInCu2,0.0
mp-862994,Pm2CdGe,0.0
mp-863732,Pm2PtRh,0.0
mp-864597,LiMgTl2,0.0
mp-864912,YbGaPt,0.0
mp-864992,MnNbRu2,0.0
mp-865028,AcTlTe2,0.9108
mp-865046,LiPaPt2,0.0
mp-865130,Hf2MoRh,0.0
mp-865215,TmHfRu2,0.0
mp-865277,TmZrRu2,0.0
mp-865353,TmI3,2.2692
mp-865402,TmAlCu,0.0
mp-865662,Yb2AgPb,0.0
mp-865803,Ti2MoPt,0.0
mp-865897,Li2AcIn,0.0
mp-865952,AcTlAu2,0.0
mp-865999,YbTlPd2,0.0
mp-866103,Ac2MgSn,0.0
mp-866284,Al2IrOs,0.0
mp-866301,BaBSbS4,2.6604
mp-866651,KSiBiS4,2.050499999999999
mp-867180,Pm2S3,2.5717
mp-867213,Er2OsPd,0.0
mp-867254,SmAgAu2,0.0
mp-867280,Be2IrPt,0.0
mp-867318,Eu3Tl,0.0
mp-867340,K2BaCdSb2,0.15000000000000002
mp-867358,PuCl2,0.0
mp-867359,AlTlSe2,1.6531
mp-867890,AcCd3,0.0
mp-867964,Rb4P2PbSe8,1.7612
mp-883,HoN,0.240099999999999
mp-9236,U2Si4Mo3,0.0
mp-9378,Na(SnAs)2,0.0
mp-9454,Sr3MgIrO6,0.0
mp-972520,SmSnRh2,0.0
mp-973612,Hf9CoMo4,0.0
mp-977049,Hf4Co4Ge7,0.0
mp-977398,TbCdAg2,0.0
mp-978275,MgB7,1.463499999999999
mp-978807,Sm2TlHg,0.0
mp-982393,Pm2ZnAg,0.0
mp-983234,Sm2Ge5Ir3,0.0
mp-984696,Hf(TlTe)4,1.162499999999999
mp-9957,V2GeC,0.0
mp-998972,TiAu,0.0
mp-999088,ThCoC2,0.0
mp-999540,MnSe,0.0
mp-1018106,YbBiPt,0.0
mp-1018162,CeBiPt,0.0
mp-1018682,DyZnGa,0.0
mp-1018769,Li3NdSb2,0.0
mp-1019362,ThBiTe,0.0
mp-1025075,TbB2Ir3,0.0
mp-1025301,GaPPd5,0.0
mp-1025302,HgPPd5,0.0
mp-1025374,ReF6,0.0
mp-1050,Ni3S4,0.0
mp-1066577,NpPt,0.0
mp-1068024,Ho2InNi2,0.0
mp-1068053,Ca2AgPd2,0.0
mp-1069044,TbCoSi3,0.0
mp-10699,LuRh3C,0.0
mp-1070583,ErAu4,0.0
mp-1071216,Pr2Co2SiC,0.0
mp-1071698,EuAu2,0.0
mp-10784,RbErSe2,2.056
mp-1079205,Tb2NiAs2,0.0
mp-1079681,ZrAu3,0.0
mp-1080399,ThB2Rh2C,0.0
mp-1080514,SrF3,0.0
mp-1080515,Nd(BOs)2,0.0
mp-1084844,ErSiAg,0.0
mp-1094072,Pr3AlN,0.0
mp-1095148,TiFeAs,0.0
mp-1095152,Lu2InAu2,0.0
mp-1095340,BaTbAgS3,0.006299999999999001
mp-1095431,YbGaNi,0.0
mp-1102382,CuAsSe,0.0
mp-1102944,TbAlPt,0.0
mp-1103033,SrMgPt,0.0
mp-1103810,Y3AlC3,0.0
mp-1104117,Sr(Cd2Pt)2,0.0
mp-1104526,Sc(Ni2As)2,0.0
mp-1105040,Ta6Zn7,0.0
mp-1105309,Ta5GeB2,0.0
mp-1105386,YbH3CN3,3.7618
mp-1105989,Lu5Ge3,0.0
mp-1112,CeCo2,0.0
mp-11121,CsTbCdSe3,2.0651
mp-1113008,Cs2LiPrI6,2.9665
mp-1113020,Cs2LiCeCl6,0.4757
mp-1113376,Rb2AgAsCl6,1.5581
mp-1113625,Rb2ScAgF6,3.3067
mp-1147521,CsCoO2,0.0536
mp-1147557,BaNiIO6,0.0
mp-1178365,Dy2Pt2O7,1.5474
mp-1181428,DyWC2,0.0
mp-1181515,Dy4Ge6Rh7,0.0
mp-1183076,Ac2AgPb,0.0
mp-1183776,CeErIn2,0.0
mp-1184178,Er3Pb,0.0
mp-1184197,CeTmIn2,0.0
mp-1184202,ErLuCu2,0.0
mp-1184522,GdLuCu2,0.0
mp-1184970,Li2HgBi,0.0
mp-1185589,Mg149Nb,0.11850000000000001
mp-1185884,MgHgPd2,0.0
mp-1185960,MgScAu2,0.0
mp-1186481,Pm2NiPd,0.0
mp-1186622,PmP3,0.0
mp-1186675,PmYTl2,0.0
mp-1187225,TaFe2Ge,0.0
mp-11873,TlAsPd5,0.0
mp-1187438,ThMgAu2,0.0
mp-1188412,Nd4Mg7Ge6,0.0
mp-1188542,Sr(FeSb3)4,0.0
mp-1189033,Tb3Ru,0.0
mp-1190146,Na2Cd(GeS3)2,2.2385
mp-1190427,LaSbO4,3.009
mp-1190608,Ho2Fe17C3,0.0
mp-1190663,LuCrB4,0.276499999999999
mp-1190950,Sc2Mn12P7,0.0
mp-1191179,TmH3,0.062899999999999
mp-1191539,Tb2Fe17C3,0.0
mp-1191941,Nb7(B4Ru3)2,0.0
mp-1192527,Ba4Li2(CdP2)3,0.4838
mp-1192560,Y10Cd3Ni,0.0
mp-1194446,Na5AgGe2S7,1.7718999999999991
mp-1194560,Rb2CdP2O7,3.4789
mp-1194754,Gd2SeOF2,1.348399999999999
mp-1194941,Hg4BiSe2Cl5,2.105
mp-1195548,K2Th(AsO4)2,3.8919
mp-1195848,U6Rh2S15,0.0
mp-1195984,Yb3Ge13Ir4,0.0
mp-1196414,Y5(Ge5Ir2)2,0.0
mp-1196829,Ce5Si4,0.0
mp-1196943,La2Zn(SeO)2,2.452499999999999
mp-1197022,CrB2(PbO2)6,1.8898000000000001
mp-1197724,Ce(Al10V)2,0.020300000000000002
mp-1198311,Hf(TlSe)4,1.3377
mp-1198439,TlV2I3O13,1.8808
mp-1198551,BaTi(S2O7)3,2.7332
mp-1199833,Cs10Tl6SiO4,0.19229999999999903
mp-1200102,CaAgGe,0.0
mp-1201069,CsCuPSe3,1.3477000000000001
mp-1201377,Pr(NO3)3,3.1523
mp-1201399,SmCO4,0.10200000000000001
mp-1201515,Fe7Sb10(Cl4O9)2,0.8813000000000001
mp-1201723,Sn3SbF9,3.6976
mp-1202534,Ca10Ag(PO4)7,3.7416
mp-1203061,TcF4,1.303799999999999
mp-1203317,Ho5(Co2Si7)2,0.0
mp-1203896,Sn21H14(Cl4O5)4,2.9683
mp-1204444,Ba5Cr3F18,1.4330999999999992
mp-1205135,Pr5P12Ru19,0.0
mp-1205536,La2Os2I,0.0
mp-1205628,Ba2ErMoO6,0.0
mp-1205688,Pr(PPt)2,0.0
mp-1205952,Er3(In2Co)2,0.0
mp-1206795,SmFe2SiC,0.0
mp-1206843,LuHSe,1.5207000000000002
mp-1206926,Rb(AsRh)2,0.0
mp-1207144,Sm2MgPd2,0.0
mp-1207422,Zr6Be15Cu8,0.0
mp-1207534,Zn3Cd3(TeO6)2,0.9112
mp-1207617,Yb2(Ga3Ir)3,0.0
mp-1207646,YTl(WO4)2,2.8775
mp-1207675,TmSiIr,0.0
mp-1207702,TmSbRh,0.0
mp-1207717,Y5SbPd2,0.0
mp-1208021,TlSO4,2.0355
mp-1208360,TbTl(WO4)2,2.908699999999999
mp-1208456,Tb4(Al8Pd3)3,0.0
mp-1208770,Sr3Li6Nb2O11,3.409899999999999
mp-1209374,Pr3(Al3Os)4,0.0
mp-1209430,Pr3(P3Pd10)2,0.0
mp-1209470,Pr2WO6,3.0598
mp-1209959,NaTm(Pd3O4)2,0.063099999999999
mp-1210098,Rb2CeCl5,0.1623
mp-1210215,PdPb,0.0
mp-1211308,Nd12InNi6,0.0
mp-1211603,La6Al5Fe9,0.0
mp-1211681,KSm(SeO4)2,3.4137
mp-1212108,HoRhO3,0.9649999999999991
mp-1213294,EuMg(BO2)5,0.197299999999999
mp-1213357,K3Sm2(NO3)9,3.598799999999999
mp-1213649,CsHoMnSe3,0.5123000000000001
mp-1213729,Cs2Pr10Ru2I17,0.0013000000000000002
mp-1213749,Cs2Pr10Co2I17,0.017900000000000003
mp-1214241,Be15(Nb3Cu4)2,0.0
mp-1214848,Ba3Dy(BO3)3,3.8533
mp-1215887,YU(CuSi)4,0.0
mp-1216793,UNiP2,0.0
mp-1216839,TlCrNiF6,3.2796
mp-1216962,V3Bi(PbO4)3,2.7415000000000003
mp-1217298,Th5C,0.0
mp-1218003,TaAl2Ni9,0.0
mp-1218606,Sr5As3O13,0.577299999999999
mp-1218898,SnTePt,0.104199999999999
mp-1219049,SmEuSe2,0.0
mp-1219110,SmAlZn,0.0
mp-1219227,Sm2AlAg3,0.0
mp-1219529,Sb3Cl9OF4,2.2573
mp-1219627,RbAs4(HO4)3,2.747
mp-1219706,PrThN2,0.0
mp-1220180,NdEuB12,0.0
mp-1220219,NdGa2Pt3,0.0
mp-1220550,Nb6V3Ni3C2,0.0
mp-1221030,Ni4Sn3,0.0
mp-1221434,Na2(TaS2)3,0.0
mp-1221820,Mn2InSnPd4,0.0
mp-1221951,MgZnCu,0.0
mp-1222150,Mg4AlB10,0.0
mp-1222319,LuGaAu,0.0
mp-1222448,Lu2Si9B36C,1.293499999999999
mp-1222772,Li(TiTe2)5,0.0
mp-1225173,EuAlSi,0.0
mp-1225434,Eu3DySb3,0.0
mp-1225810,Cu2SiTe3,0.0
mp-1226304,Cr4GaCuSe8,0.0
mp-1226517,CeSiGeRh2,0.0
mp-1226833,Ce2Zn3Cu7,0.0
mp-1227997,AlSi3W2,0.0
mp-1228062,CaCe(FeSb3)8,0.0
mp-1228523,Ba3UFe2O9,1.2901999999999991
mp-1229092,AgAu,0.0
mp-1238793,Cs2HfBr6,3.3337
mp-12804,SmAlSi,0.0
mp-1293627,Co3O4,0.0
mp-1305992,Li4Ni3SbO8,0.2838
mp-13910,Ba(AgGe)2,0.0
mp-13915,LiNi2Sn,0.0
mp-1400,HfW2,0.0
mp-14563,NaCa3IrO6,0.0
mp-14622,Y(BIr)2,0.0
mp-14785,Ba(Cu2P)4,0.0
mp-1508,LaS2,0.6628000000000001
mp-15307,ErSi3Rh5,0.0
mp-1558,SrPd2,0.0
mp-15949,Li(NiGe)6,0.0
mp-1659,ThRe2,0.0
mp-1677,Be2Mo,0.0
mp-1681,La3Sn,0.0
mp-16841,La4MnSe6O,0.0
mp-16842,Nb5Ge3,0.0
mp-16914,Y2Si5Ni3,0.0
mp-16978,Ba3MgSb2O9,2.6494
mp-17017,Al12Co4Cu,0.0
mp-17445,RbBaMnO4,1.760299999999999
mp-17502,SrVPO6,2.4511
mp-18090,Ba3TaAs3O,1.0798
mp-18135,Zr4Co7Ge6,0.0
mp-18455,NaFeF4,2.953999999999999
mp-18515,NaGdSiO4,0.2298
mp-18691,Rb2Ni3Se4,0.6545999999999991
mp-18788,CrCoO4,0.5384
mp-18825,YCrO4,0.32130000000000003
mp-1886,TbTl3,0.0
mp-1890,BMo,0.0
mp-1979,HoPd3,0.0
mp-19977,SmIn3,0.0
mp-20037,PrInRh,0.0
mp-20255,TiCuSi,0.0
mp-20340,EuN,0.0
mp-2050,HoSb,0.0
mp-2051,LaCu2,0.0
mp-20549,CaPb3,0.0
mp-20649,Y(MnGe)2,0.0
mp-20739,DyGePt,0.0
mp-20831,Gd4Sb3,0.0
mp-20898,DyInAg2,0.0
mp-20916,V5Ge3,0.0
mp-21008,Ni3Ge,0.0
mp-21074,Cr2HgO4,1.33
mp-21103,UPdSe3,0.0
mp-21415,Dy(NiGe)2,0.0
mp-21437,Fe2TeO6,1.2382
mp-21478,U(CuP)2,0.0
mp-21547,Na3InSb2,0.284699999999999
mp-2157,Co3W,0.0
mp-21884,EuGa4,0.0
mp-21887,NdInPd,0.0
mp-22056,YIn2Ni,0.0
mp-22061,In(TeMo)3,0.241099999999999
mp-22095,Ga2Pt,0.0
mp-2211,V3Pt,0.0
mp-22204,Co2P,0.0
mp-22315,HfCoSn,0.0
mp-22346,BaGe3Pt,0.0
mp-22365,Eu3RuO7,0.0
mp-22871,ZrCl3,0.5388000000000001
mp-23005,Bi4Te7Pb,0.599799999999999
mp-2314,LiPb,0.0
mp-23216,SnBr4,2.7107
mp-23247,ZrBr3,0.0
mp-23307,NbCl5,2.2207
mp-2381,ErRh,0.0
mp-24227,H8Pt(NCl3)2,1.896
mp-24502,ZnH2(SO4)2,4.661
mp-246,TiF3,0.0
mp-2567,V3Si,0.0
mp-26239,LiMoP2O7,3.9111000000000002
mp-27308,SbBrF8,2.6921
mp-2801,CeCu2,0.0
mp-28129,Ba(SbS2)2,1.4617
mp-28247,K2PtI6,0.8982999999999991
mp-28330,TeAuCl7,1.5772
mp-28497,Cs2CrCl4,0.0
mp-28550,Hf2Ag3F14,0.1592
mp-28645,CaNiN,0.0
mp-2866,Yb(FeSi)2,0.0
mp-28825,K3CoO2,1.6284
mp-28851,Na4Cd3Se5,1.0253
mp-28868,Nb3(BiS3)2,0.0
mp-29022,K2GeSe4,1.7903
mp-29150,La3MoO7,1.567599999999999
mp-29167,Sr(NiP)2,0.0
mp-29587,Pr3(BN2)2,0.0
mp-29645,Nb2Cr4Si5,0.0
mp-29733,MgNiBi,0.0
mp-29835,K2SnTe3,0.9647000000000001
mp-30021,K5Sb4,0.0
mp-30052,Ni6Mo6C,0.0
mp-3015,HoInCu,0.0
mp-30152,CeSbTe,0.0
mp-3018,Nd(MnSi)2,0.0
mp-30182,ThAl3Ni2,0.0
mp-30197,K3ErCl6,5.193799999999999
mp-30358,TbAg2,0.0
mp-30375,ErInAu,0.0
mp-30420,SrAu,0.0
mp-30585,HoCu5,0.0
mp-30714,Tm2Zn17,0.0
mp-30871,Ta3Sn,0.0
mp-31001,KSb3O5,3.110499999999999
mp-31009,Ho(NiB)2,0.0
mp-31080,YAlSi,0.0
mp-31081,Sc(MnAl2)4,0.0
mp-31172,Ca5Ag3,0.0
mp-31278,Ca3(Bi2Pd)4,0.0
mp-31311,Ga9Ir2,0.0
mp-3141,ErInRh,0.0
mp-31630,Ba2TaCrO6,2.1562
mp-3180,Ta2Te2O9,3.2045
mp-375,UO3,1.6463
mp-3829,CdSnAs2,0.3094
mp-396,YbGa,0.0
mp-4041,Yb(AlGe)2,0.0
mp-4189,Dy6FeSb2,0.0
mp-4334,Sm(CoGe)2,0.0
mp-4634,LaNi4B,0.0
mp-4729,Er(MnSi)2,0.0
mp-4805,Gd2SO2,2.042299999999999
mp-4907,Na6Sn2S7,2.094799999999999
mp-4938,ScCo3B2,0.0
mp-504442,U4Re7Si6,0.0
mp-504576,OsOF5,0.7868
mp-504753,Cu12As4S13,0.0
mp-505346,Eu3(BO3)2,0.37759999999999905
mp-505680,Lu4Ge6Ru7,0.0
mp-505747,TlIn5S6,1.225299999999999
mp-505799,P2Pb3O8,3.381299999999999
mp-510262,Cs3O,0.0
mp-5109,Y(NiGe)2,0.0
mp-5160,AgBF5,0.0
mp-5334,YbSbAu,0.0
mp-540572,NCl3,2.1637
mp-541035,CsUN3O11,2.4216
mp-541148,KUVO6,1.999299999999999
mp-541787,Na8Hg3,0.0
mp-542012,Rb4Hf3S14,2.0534
mp-542317,K2U(WO5)2,2.0234
mp-542964,Eu(TmSe2)2,0.1836
mp-554228,Na2VOF4,2.991799999999999
mp-554545,Bi2Os2O7,0.0
mp-555091,Rb2Na2IrO4,0.0
mp-555096,PrS2,0.49340000000000006
mp-555113,Rb3Cu2(BiS2)5,0.5187
mp-556721,Ba5Re3BrO15,2.5683
mp-557824,Rb2(ReS2)3,1.356099999999999
mp-558707,K2UAs2O9,2.4248
mp-558786,Ag6GeSO8,0.0
mp-559431,KVPO5,3.0705
mp-560658,Na5Bi2As5O18,3.1791
mp-560785,K2Y4Sn2S11,1.5806
mp-561455,Ba8Sb6S17,1.3951
mp-561467,YAg3(PS4)2,2.026799999999999
mp-562050,Cs2NaTiF6,0.0
mp-5627,Pr(FeSi)2,0.0
mp-567814,Pu3Zn22,0.0
mp-567967,LiGaI4,2.4872
mp-567982,TaSn2,0.0
mp-568357,K4La6OsI14,0.0
mp-568440,Ho2(Ni2B)5,0.0
mp-568511,Ca7(B7Rh10)2,0.0
mp-568709,Dy2Ni7Sn3,0.0
mp-568778,CuTeBr,0.8077000000000001
mp-569302,Gd(SiRu)2,0.0
mp-569304,C,2.6904
mp-569326,Zr4(AlC2)3,0.0
mp-569349,Rb2HgPSe5,1.379
mp-569378,Rb3Ta2AgSe12,1.425
mp-569384,PrMgSi2,0.0
mp-569424,Cr2B,0.0
mp-569752,UPt,0.0
mp-569975,Yb3CoSn6,0.0
mp-570050,Yb2Sn,0.0
mp-570068,K(Sn3Au2)2,0.0
mp-570164,YbTl3,0.0
mp-570481,Se,1.6545
mp-571000,Th(GeOs)2,0.0
mp-571126,Ti2BRh6,0.0
mp-571183,TmFe2,0.0
mp-571253,Er(Al3Ni)3,0.0
mp-571296,Er(GeRu)2,0.0
mp-573202,K3Ta2Ag3S8,2.2944
mp-579125,Gd(PO3)3,3.5529
mp-580234,Fe3RhN,0.0
mp-581696,CsLu2Cu3Se5,1.3616000000000001
mp-581868,NaY(IO3)4,3.3077
mp-582024,Cs3Cu2Cl5,2.3072
mp-5835,Ho(CoSi)2,0.0
mp-5887,EuNiGe,0.0
mp-5898,La(SiNi)2,0.0
mp-600561,LiRh,0.0
mp-601253,ZrGaPt,0.0
mp-601326,Sr6Ge5N2,0.0
mp-605873,Pr4MgRu,0.0
mp-607816,UFeGe,0.0
mp-608014,K2Ge2Pb2O7,3.3341
mp-616190,Tl2(ReSe2)3,0.984399999999999
mp-622262,Te6MoBr3,1.0895
mp-623862,Rb3Tm2Cu4Br13,1.9139
mp-625447,Pr(HO)3,3.7614
mp-636316,EuIn2,0.0
mp-638841,Eu(AsRh)2,0.0
mp-639496,EuIn2Au,0.0
mp-640158,Hf6Fe16Si7,0.0
mp-640227,KEu(WO4)2,0.0
mp-640389,Cs2Th(PS3)3,2.275299999999999
mp-640883,VBi(PbO3)2,2.678
mp-643273,NaH2Pd3,0.0
mp-644492,LuNbO4,3.411399999999999
mp-646878,In4SnS4,1.1714
mp-649327,Mo6PbBr14,2.2911
mp-673657,Ti7S12,0.0
mp-675920,Ti6AgS12,0.0
mp-677627,Li3Nd3(TeO6)2,3.1317
mp-678358,Hf5ZrTe8,0.0
mp-679936,Er7C2I12N,1.162999999999999
mp-680682,K3Ga13,0.060099999999999
mp-684031,Mg3(TiAl9)2,0.0
mp-685609,Cs10(Mo2N5)3,0.0
mp-704141,Sr5(CoO3)4,0.011000000000000001
mp-707536,KHSeO4,3.5239000000000003
mp-7097,ThAs2,0.0
mp-728,Li2Pd,0.0
mp-752520,GdIO,0.355699999999999
mp-754673,Er6Te2Ru,0.0
mp-765136,LiMn8F33,1.464499999999999
mp-774832,Ba10Li2Bi4O21,0.0
mp-8,Re,0.0
mp-8125,LuCuSi,0.0
mp-8146,SrPuO4,0.0
mp-850,ScNi2,0.0
mp-861667,LiSbRh2,0.0
mp-861724,Ac2AgIr,0.0
mp-861877,CdSnRh2,0.0
mp-861880,AcCdRh2,0.0
mp-861893,Li2LaPb,0.0
mp-861963,LiLu2Os,0.0
mp-862264,Sc2ZnTc,0.0
mp-862296,LiAlPt2,0.0
mp-862316,LiBePt2,0.0
mp-862335,LiAsRh2,0.0
mp-862630,ReRu3,0.0
mp-862691,Al2FeCo,0.0
mp-862836,PmAlAu2,0.0
mp-862879,PmBiAu2,0.0
mp-862967,PmTlRh2,0.0
mp-862996,Pm2CdIn,0.0