material_id,pretty_formula,band_gap
mp-559031,Eu4Br6O,0.8538000000000001
mp-559279,RbV(PO4)2,2.1007
mp-559386,Rb2Cr5F17,2.5291
mp-559748,NdGaGe2O7,3.232
mp-559903,NaLa(SeO3)2,3.6505
mp-560071,KRb2CoF6,3.1375
mp-5603,NbCoTe2,0.0
mp-560465,K11LiMn4O16,1.3134000000000001
mp-560553,IrF6,0.7829
mp-560831,Na6P4Pb3S16,2.4856
mp-560964,K3Sm(AsS4)2,1.6966
mp-561202,K6NbAs3O,1.0127
mp-561307,DySCl,3.0388
mp-561385,SrTeO3,3.4711
mp-5622,Nd(CoP)2,0.0
mp-567387,Ce(TiAl10)2,0.0
mp-567502,Ga8Cu3Mo2,0.0
mp-568156,Y4CdRu,0.0
mp-568189,Gd3CuGeSe7,0.8104999999999991
mp-568541,Dy2B4C,0.0
mp-568668,DyFe2SiC,0.0
mp-568671,V5Si3,0.0
mp-568719,SmInAg2,0.0
mp-568798,Ca14MnSb11,0.0
mp-569118,Cs3MnI5,2.3481
mp-569218,Ba3Al3Ga2,0.0
mp-569338,YbAlPd,0.0
mp-569408,K(CoAs)2,0.0
mp-569580,NaLa4I7N2,2.8344
mp-569650,Ho(GeRh)2,0.0
mp-569702,KPSe3,1.4182000000000001
mp-569822,Bi(W2Cl5)3,2.0311
mp-569851,Ho10Si17,0.0
mp-570015,Ho4InRh,0.0
mp-570421,Sm2B5,0.0
mp-570679,TaI5,1.1727
mp-5714,TmCo3B2,0.0
mp-573340,Nb2Se17Cl12,1.3182
mp-574199,Sm(NiP)2,0.0
mp-580136,LuCu5,0.0
mp-581237,K3Fe2(PO4)3,2.266
mp-582242,La8Ni4Br7,0.0
mp-605252,DyGaCo,0.0
mp-607111,AlPt3,0.0
mp-6102,NdNi2B2C,0.0
mp-614981,Ba2Nd(CuO2)3,0.0
mp-6150,Na4Zr2(SiO4)3,4.321099999999999
mp-619510,CsHg2Br5,2.008
mp-6213,Na3Sc2V3O12,3.2084
mp-627405,La11(Ni2Ge3)2,0.0
mp-630862,Yb2Pt2Pb,0.0
mp-6310,Ba3Y(BO3)3,3.8154
mp-6328,Na2Ti2Sb2O,0.0
mp-638078,CsTbZnTe3,1.3573
mp-638150,KPPbS4,2.323799999999999
mp-639876,U2SnRh2,0.0
mp-641010,La4Te3N2,0.880799999999999
mp-641575,Cr21(WC3)2,0.0
mp-645662,Ba14Na14LiN6,0.0
mp-650513,Ca3(InAs2)2,0.0017000000000000001
mp-669713,Gd2Ni7,0.0
mp-674219,LiCr3O8,1.8567
mp-680434,Na26Cd141,0.0
mp-680747,K4(BSe)9,2.2415
mp-683905,K3Ta2AsSe11,1.2004000000000001
mp-683984,Al(SeCl)4,1.105
mp-685439,LiNi3P2,0.0
mp-6929,Ca2As2O7,3.3454
mp-695984,BaRe2H2O9,3.8891
mp-698842,Li19Ni23O42,0.0
mp-703682,GdMn2O5,1.2287
mp-706847,Na17(WO3)19,0.9679999999999991
mp-7127,Ba2YbTaO6,0.0
mp-7423,Sm3ReO8,1.8171
mp-7433,NaCuSe,0.0478
mp-757614,LiFeO2,1.6147
mp-758371,YbAlO3,0.0
mp-769915,La4Ga2O9,3.8849
mp-7819,Pd4S,0.0
mp-814,DySe,0.0
mp-853,ErNi5,0.0
mp-861503,Pr3Sb4Au3,0.5229
mp-862292,Ce3Zn11,0.0
mp-862668,CeHg3,0.0
mp-862764,LiCa2Rh,0.0
mp-862876,PmAg2Pb,0.0
mp-862887,LiSc2Os,0.0
mp-862902,PmDyMg2,0.0
mp-862951,PmPbAu2,0.0
mp-862953,PmSbAu2,0.0
mp-864715,HfInCo2,0.0
mp-864844,Zn2RhAu,0.0
mp-864911,AcMnO3,0.0
mp-865209,TmHfOs2,0.0
mp-865411,GdAl3,0.0
mp-865491,LuNiB4,0.0
mp-865528,Ba5Cd2Sb5F,0.070399999999999
mp-865545,Pm2SiAu,0.0
mp-865715,Li2PrTl,0.0
mp-865796,LuCdRh2,0.0
mp-865967,Ce5Al2Ru3,0.0
mp-866755,LiMg149,0.0
mp-867,ErCd,0.0
mp-867162,LiTm2Rh,0.0
mp-867178,PrMgCd2,0.0
mp-867256,DyCdAg2,0.0
mp-867361,CeTlAu2,0.0
mp-867786,ScNbOs2,0.0
mp-867827,DyCdAu2,0.0
mp-867841,GaTc,0.0
mp-867848,LaMgCd2,0.0
mp-867929,Sm3SiAgS7,1.879
mp-8793,Nd5(FeB3)2,0.0
mp-8937,CrSi2,0.0
mp-9132,Ta3SnS6,0.0
mp-945,NiPt,0.0
mp-9529,DyGeRh,0.0
mp-9596,La(BIr)4,0.0
mp-972861,Sc2TlTc,0.0
mp-973019,LiSm(CuP)2,0.0
mp-973586,Lu(AlC)3,0.1749
mp-974392,HoB4Ru,0.0
mp-975738,Pr(BOs)2,0.0
mp-977378,ErCdAg2,0.0
mp-977540,CaBiPd2,0.0
mp-983154,Pm2ZnPt,0.0
mp-984635,LiErSn,0.0
mp-989580,Cs2KNF6,3.0365
mp-989612,LaCrN3,1.434299999999999
mp-999141,TbAu,0.0
mp-999269,RbSmTe2,1.3667
mp-1001606,LuFeC2,0.0
mp-1006891,KSmSe2,1.9650999999999992
mp-1018792,LuS2,0.0
mp-1019104,CaSnHg,0.0
mp-1025205,Y2Re2Si2C,0.0
mp-1025382,Th2Fe2Si2C,0.0
mp-1027,HfRh3,0.0
mp-1029741,Sr3IrN3,0.0
mp-1068348,TmAu4,0.0
mp-1070601,La2BiO2,0.0
mp-1070857,NdSiNi4,0.0
mp-1071690,Be5Co,0.0
mp-1071835,DyCu2,0.0
mp-1076988,GdZn2,0.0
mp-1078278,CrB4,0.0
mp-1078304,Ca2AlPd2,0.0
mp-1078612,LaTe3,0.0
mp-1078820,DyMgAg,0.0
mp-1078841,LaMgPd,0.0
mp-1078980,Eu2ZnP2,0.0
mp-1079059,Er2InAu2,0.0
mp-1079560,Nb2CrB2,0.0
mp-1079688,Hf4CuSi4,0.0
mp-1079901,Ba2CrMoO6,0.0
mp-1079916,DyIn2Ni,0.0
mp-1079994,Y(NiB)2,0.0
mp-1087498,Ce(AsRh)2,0.0
mp-10930,TbSF,1.2582
mp-1095135,DyGa2Ni,0.0
mp-1095140,Er2CoGe2,0.0
mp-1095154,SmMgAg,0.0
mp-1095478,YAlPt,0.0
mp-1101919,LuSiPt,0.0
mp-1102015,ThTlCuSe3,1.7328000000000001
mp-1102212,SmAlPd,0.0
mp-1102449,SmAlAu,0.0
mp-1102688,PrSbSe,0.000299999999999
mp-1102926,YGaCo,0.0
mp-1103604,La2NCl3,3.456199999999999
mp-1103625,Np2Se5,0.0
mp-1103637,EuBPt4,0.0
mp-1104088,Tb3Pd4,0.0
mp-1104406,Sc2Si2Pt3,0.0
mp-1104605,Nd5Ir2,0.0
mp-1105134,AsPd3,0.0
mp-1105554,Tm2ReC2,0.0
mp-1106223,NdGe2Pt,0.0
mp-1106226,PrGe2Pt,0.0
mp-1106249,Ba4Co(ReO6)2,1.554199999999999
mp-1106365,Th5Pb4,0.0
mp-11272,Be2Nb3,0.0
mp-1128,SiIr,0.0
mp-1179173,Sr2H4Pd,1.8437000000000001
mp-1181782,CuReO4,1.501799999999999
mp-1183048,ZrSnRu2,0.029300000000000003
mp-1183234,AcSe3,0.0
mp-1183419,Be2IrRu,0.0
mp-1183560,CaSmAg2,0.0
mp-1183617,CaInAg2,0.0
mp-1183732,CeTh3,0.0
mp-1183753,CeHoIn2,0.0
mp-11839,GdSbPt,0.0
mp-1184103,DyThRu2,0.0
mp-1184955,Li2TlCd,0.0
mp-1185100,La2AgHg,0.0
mp-1185418,LiZnPt2,0.0
mp-1185570,Mg149Pb,0.383
mp-1186069,Na(MoSe)3,0.43800000000000006
mp-1186224,NbGaTc2,0.0
mp-1186378,NdGdIr2,0.0
mp-1186473,Pm2PdAu,0.0
mp-1186592,PmHoRh2,0.0
mp-11871,HoNi,0.0
mp-1187203,Ta3Re,0.0
mp-1187276,Tb2InHg,0.0
mp-1187627,YbNdAu2,0.0
mp-1188062,Zr3Sc,0.0
mp-1188119,PrGaPd2,0.0
mp-1188125,Sm3Ru,0.0
mp-1188549,Ho7PtI12,0.09200000000000001
mp-1188982,Tm2Si4Mo3,0.0
mp-1189150,Th(As3Os)4,0.47130000000000005
mp-1190423,Na2Se2O7,2.9536
mp-1190996,CsGd2Cu3Se5,0.9611000000000001
mp-1191197,Sr2(GaAu2)3,0.0
mp-1192743,SrGePbO4,3.489999999999999
mp-1193529,PrBe13,0.0
mp-1193901,HoMoBrO4,2.0518
mp-1194,CdPt,0.0
mp-1194174,Er9(FeGe)10,0.0
mp-1194657,Th(Al10V)2,0.0
mp-1195316,SmFeGe2O7,1.1759
mp-1195659,Th(SeO3)2,3.9545999999999992
mp-1195865,Ce2Te4Cl2O11,1.4026
mp-1196151,InHg7S6Cl5,1.4549
mp-1196650,Na2(ReSe2)3,1.278999999999999
mp-1196826,CsNbS2O9,2.7417
mp-1197004,Tb10Mn13C18,0.0
mp-1197621,Ga4Cu9,0.0
mp-1197913,GePb(S2O7)3,3.9530000000000003
mp-1197932,Pr7Ru3,0.0
mp-1198419,K2Cd3Se4,1.402499999999999
mp-1198503,U(Zn10Rh)2,0.0
mp-1198518,Er11(AlGe4)2,0.0
mp-1198571,Ba8Eu7Cl34,0.0
mp-1198762,InSeClO3,3.3801
mp-1198942,Mg3(TaAl9)2,0.0
mp-1198976,Ba3GaS4Cl,3.1652
mp-1199053,LaTmS3,0.492
mp-1200203,Bi2(S2O7)3,4.016599999999999
mp-1200920,CaC2(NO)2,3.832499999999999
mp-1201259,NaTiAsO5,2.907
mp-1203722,La6Co13Sb,0.0
mp-1203732,Lu2Mn3Si5,0.0
mp-1205366,LuRhO3,1.0887
mp-1205409,Eu3(AlP2)2,0.023100000000000002
mp-1205667,Tl3FeF6,2.6872
mp-1205678,Ho2MgSi2,0.0
mp-1205848,DyPRu2C,0.0
mp-1205959,LuMgTl,0.0
mp-1206164,Tm3Ga5Ni,0.0
mp-1206218,NdInNi4,0.0
mp-1206527,TbSbPd,0.0
mp-1206754,Pr(GePd)2,0.0
mp-1206878,Tb3GaC,0.011600000000000001
mp-1207229,Cs2MoBr6,0.0
mp-12073,Ba(BIr)2,0.0
mp-1207550,YbMgAg,0.0
mp-1207799,VCoAs,0.0
mp-1208170,TiVP,0.0
mp-1208300,TbPPd,0.0
mp-1208325,TlCu(PO3)3,0.988
mp-1208499,Tb6Nb4Al43,0.023100000000000002
mp-12086,Cu3Pt,0.0
mp-1209305,Rb3Yb(PO4)2,0.0
mp-1209481,Rb4WO5,2.9143
mp-1209621,PrGaGe2O7,2.8533
mp-1209631,Pr5CoSb2,0.0
mp-1209829,NdBPt4,0.0
mp-1209888,Nd3W(ClO2)3,3.539799999999999
mp-1209988,Ni21(GeB3)2,0.0
mp-1210715,MnPb(SO4)2,3.763
mp-1211663,KGd2Cl7,2.6255
mp-1212216,Ho5(GeSb)2,0.0
mp-1212299,Ho4CdNi,0.016
mp-1212337,Ho2Si5Rh3,0.0
mp-1212466,Hf5CoP3,0.0
mp-1212503,Ho5NiBi2,0.0
mp-1212768,EuAlGe2O7,0.0
mp-1212919,Dy4CdPt,0.026499999999999004
mp-1212922,Dy4CdNi,0.0291
mp-1212930,ErTiClO3,3.166499999999999
mp-1213193,CsEr(WO4)2,4.7318999999999996
mp-1213219,Er5InNi2,0.0
mp-1213250,Er5SbPd2,0.0
mp-1213375,CsY(NbBr3)6,0.9778000000000001
mp-1213497,Gd2(Ga3Ir)3,0.0
mp-1213763,ClF5,3.1218
mp-1213853,Ce4(ErS2)11,0.0
mp-1213948,CaZnPd,0.0
mp-1214085,Ce2Ni12P5,0.0
mp-1214531,Ba5Cr3O12F,1.0396
mp-1214997,C6N7Cl3,2.7092
mp-1215481,YbSmB12,0.0
mp-1215524,ZnCdAu2,0.0
mp-1215781,Yb4Ge3Au5,0.0
mp-1216134,Y2P7Rh12,0.0
mp-1216912,Tl(V3S4)4,0.0
mp-1217402,TbZnSi,0.0
mp-1217780,Ta2Co3Ge,0.0
mp-1217948,TaMnNbO6,2.568699999999999
mp-1218308,Ta2Se8Br,0.5301
mp-1218812,Sr2GaSi,0.0
mp-1219143,Sm6Mn(SiS7)2,1.060699999999999
mp-1219151,Sm4Ga7Ag5,0.0
mp-1219290,Sm9Al(SiS7)3,1.903499999999999
mp-1219380,Sc4Co3Sb4,0.0
mp-1219480,Sb8Pd3Au,0.0
mp-1219545,Re4(As2S)3,0.0
mp-1219726,PrUS2,0.0
mp-1219977,PrCuGe,0.0
mp-1221,V3Ge,0.0
mp-1221048,NaLiV2O6,3.1323
mp-1221731,Mn3CrP4,0.0
mp-1221900,Mn3V17Si12,0.0
mp-1222646,Li2MgHg,0.0
mp-1222668,Li2AlGa,0.0
mp-1223228,La2CuSi3,0.0
mp-1223870,Hf2Al3Pd,0.0
mp-1224542,K3In(PO4)2,3.4022
mp-1224772,HNO3,3.8158000000000003
mp-1225272,EuTa3O9,0.0
mp-1225289,Dy2TeS2,1.877199999999999
mp-1225366,Dy2FeCo3,0.0
mp-1225527,Eu2(ZnNi)5,0.0
mp-1225880,CsTaSe3,0.133
mp-1226272,CrNiPO5,0.0
mp-1226473,CeYFe4,0.0
mp-1227157,Ca5Bi6(Cl3O2)4,3.1153
mp-1228374,Al5FeNi,0.0
mp-1237522,BiSb3(PO4)6,2.2741
mp-1245,Sr2N,0.0
mp-1247744,BaNa,0.0
mp-12722,TbAlPd,0.0
mp-1306,ThAl3,0.0
mp-1332,Si3Mo5,0.0
mp-13570,Mg(ScGa)2,0.0
mp-13971,Nd2SeO2,2.308
mp-14005,KRuO4,0.0
mp-1412,Ti3Sb,0.0
mp-1428,Ni5Ge3,0.0
mp-14425,Sr(GaS2)2,2.8975
mp-1559,Mg3N2,1.5098999999999991
mp-15645,Ag8SnS6,0.5354
mp-15686,Li2CuAs,0.0
mp-1578,V3Rh,0.0
mp-15887,Sr2YIrO6,0.0
mp-15919,BeAgPO4,2.6505
mp-1592,Ag2Te,0.0
mp-16529,Al6Ru,0.0
mp-16780,KBaNbS4,2.074
mp-16897,Sr2Sb3,0.12809999999999902
mp-1699,AlCr2,0.0
mp-1719,PuN,0.0
mp-17344,RbEr2Cu3S5,1.511299999999999
mp-1742,GdRh,0.0
mp-18156,KBaPSe4,1.2589000000000001
mp-18301,RbMnO4,2.1425
mp-1948,LaAg,0.0
mp-19722,MnCu2SnS4,0.0
mp-1977,NdSn3,0.0
mp-19816,Sm2In,0.0
mp-20021,DySn2,0.0
mp-20216,MgPb2WO6,2.8636
mp-20273,Ca3PbO,0.7472000000000001
mp-20309,EuPb3,0.0
mp-20374,Ho2C(NO)2,3.9968000000000004
mp-20456,Co3Se4,0.0
mp-20656,DyMn12,0.0
mp-20748,Dy4In(NiGe2)2,0.0
mp-20777,SmCoGe,0.0
mp-20886,CeZnSn,0.0
mp-21156,TbPb3,0.0
mp-21235,Mn2VGa,0.0
mp-21420,Nd(MnGe)2,0.0
mp-22150,Zr2InCo2,0.0
mp-22504,Eu2SiS4,0.21809999999999902
mp-22563,Gd(LuS2)3,0.958299999999999
mp-22594,Ba2LuIrO6,0.0
mp-22802,PrMn2O5,0.0
mp-23,Ni,0.0
mp-23062,YCI,0.0
mp-23232,FeBr3,0.029599999999999002
mp-2331,B2Mo,0.0
mp-23313,InBi,0.0
mp-23334,Bi2TeO5,2.5328
mp-23572,KBiP2S7,2.376199999999999
mp-2360,CaGe,0.0
mp-2415,DyTl3,0.0
mp-24154,NbH2,0.0
mp-2509,ThRh3,0.0
mp-2688,HoGa3,0.0
mp-27003,Li3Mo2(PO4)3,3.9179
mp-27017,LiSnPO4,3.4153000000000002
mp-2726,SrCu5,0.0
mp-27291,PaCl4,0.16009999999999902
mp-2733,Al8Mo3,0.0
mp-27360,ReBiO4,0.0
mp-2738,DyNi,0.0
mp-27557,Na8Fe2O7,2.1192
mp-27986,Np(OF)2,0.0
mp-2806,YbSn,0.0
mp-28277,K2PrI5,3.0315
mp-28600,Rb2FeF5,2.9093
mp-28702,Gd2B3C2,0.0
mp-28821,La2Ni12P5,0.0
mp-28877,Cs2SnTe4,0.6679
mp-29087,Ba2(SnSb2)3,0.0
mp-29197,La3Br6N,3.057599999999999
mp-29326,La3(ReO5)2,0.0
mp-29357,Zr6CCl14,1.3146
mp-29535,CeSiI,0.0
mp-29847,Tb4BBr6,0.0
mp-30050,Ba(GeRu)2,0.0
mp-30113,Zr(Se2Cl3)2,1.3186
mp-30158,Sr3Ga4O9,2.8941
mp-30195,HoCuP2,0.0
mp-30218,Ti2P,0.0
mp-30756,LaSn3Ru,0.0
mp-3084,Sc2Ni12P7,0.0
mp-30984,S(IO3)2,1.9691
mp-31066,LiUN2,0.0
mp-31095,Er2FeSi2,0.0
mp-31197,Er(FeSn)6,0.0
mp-31204,Nd(SiAg)2,0.0
mp-31229,Na4(BSe)9,2.2099
mp-31312,Ga9Rh2,0.0
mp-3154,Sm3Sb5O12,3.137
mp-3187,BaCeO3,2.229
mp-3241,Sr(CuGe)2,0.0
mp-3414,AgSbF6,1.7739
mp-3489,Nd(FeSi)2,0.0
mp-3698,SrAlSi,0.0
mp-3782,Nd3Sb5O12,3.1803
mp-4172,Na5GeP3,1.0516
mp-4259,Ca(CoGe)2,0.0
mp-4305,Er(CuSi)2,0.0
mp-4363,Ca3Sn13Rh4,0.0
mp-4404,Sr(AsRu)2,0.0
mp-4537,Ce(SiNi)2,0.0
mp-4856,HoGa5Co,0.0
mp-4881,Er(SiNi)2,0.0
mp-504427,Ti3PbO7,1.9906000000000001
mp-504712,CaV2O4,0.0
mp-510357,La4B4Br5,0.0
mp-5248,Na5SnAs3,0.39320000000000005
mp-5273,KPrTe2,1.3402
mp-540598,Ti4Tl2O9,2.7434000000000003
mp-540619,K3SnTe3,1.2332
mp-540716,Ta2MnO6,2.0785
mp-541211,KLaCr2O8,2.6534
mp-541349,Ho2Au5F21,1.6074000000000002
mp-541389,Rb5(CoO2)2,1.0184
mp-541537,K2ZnSiO4,3.492
mp-541745,Rb3Nb2S11,1.507199999999999
mp-541836,CeTmS3,0.0
mp-541971,Tm2Ni12P7,0.0
mp-542632,GdNi,0.0
mp-542995,Nb6Fe16Si7,0.0
mp-548753,V2Co(PO5)2,1.7259000000000002
mp-549776,BaPrMn2O5,0.0
mp-5541,ZrVSi,0.0
mp-554546,Eu2SiO4,0.2877
mp-554807,Er10W2O21,3.0317
mp-555078,Ba3SrSb2O9,3.1456
mp-555269,Ag3SbS3,1.5086
mp-556039,Na3Y(BO3)2,3.6611000000000002
mp-556210,Bi2CO5,2.2747
mp-556254,K4Pt2(SO4)5,1.705099999999999
mp-556581,Fe2PClO4,3.7910999999999992
mp-556920,Tb9(SbO)5,0.0
mp-556975,Nd3CuSiS7,1.6369999999999991
mp-557258,Tl4Cu4(P2O7)3,0.22779999999999903
mp-557389,KMn5(SeO3)6,0.049799999999999005
mp-557786,CaNb2P2O11,2.4776
mp-557821,Ca3Cr3(PO4)4,3.241599999999999
mp-558023,Rb2Sb4O11,1.8332000000000002
mp-558070,K6U2Mo4O21,2.2026
mp-5581,Mo(PO3)3,3.2774
mp-558607,K3BSb4O13,1.8633000000000002
mp-558829,Cs3Yb(SO4)3,0.0
mp-558875,HoTe2ClO5,2.925799999999999
mp-559000,SbSe6IF6,1.5426
mp-559281,Na3Cr2(PS4)3,1.2934
mp-559519,Na4TiAs2O9,3.0642
mp-559703,BaLa2Te5O14,3.2283
mp-560014,Pr3CuSnS7,1.8349000000000002
mp-560242,NaMnF3,2.7477
mp-560833,B3Pb6ClO10,2.816
mp-561177,Gd3BWO9,3.2565
mp-561799,Yb(GaS2)2,3.014
mp-5646,NdSnAu,0.0
mp-566301,As3Pb5ClO12,3.1736
mp-566599,La(IO3)3,3.2047
mp-567339,PrOs2,0.0
mp-567422,GdNiBi,0.0
mp-567524,K3Ga3As4,0.8673000000000001
mp-567643,Ba12Na15Li8N6,0.0
mp-567844,Gd2Fe2I,0.0
mp-568036,La2GaN3,1.8709000000000002
mp-568396,Ba(FeBr4)2,0.8935000000000001
mp-568801,Pr3CuSiSe7,1.4533
mp-568803,Mg(B6C)2,2.2943
mp-568883,Pr3SiSe2N3,2.0857
mp-569568,Ta3AlC2,0.0
mp-569576,La5(SiN3)3,2.057499999999999
mp-569628,CaCdAu,0.0
mp-569653,SnPCl9,2.5637
mp-569850,CeBr3,0.007
mp-570186,Ga2Te2Br7,1.3212000000000002
mp-570531,NbP2NCl12,2.4316
mp-570611,PrInAu2,0.0
mp-571208,Dy4MgRh,0.0
mp-571291,Sr3(SnP2)2,0.9885
mp-571662,KLa(PSe3)2,1.955899999999999
mp-572921,Cs2Ga3As5O18,2.4286
mp-573103,Cs2Np(SO5)2,0.2559
mp-573465,Ag5Te2Cl,0.198499999999999
mp-579812,CeNiSb3,0.0
mp-581934,Pu3Ge,0.0
mp-583213,HgI2,1.4602
mp-5965,Tb3Ga5O12,3.2791
mp-601371,GdSi,0.0
mp-601846,Yb2In8Ir,0.0
mp-6046,Na4UC3O11,2.1525
mp-616439,Cs2CuCl4,0.38370000000000004
mp-619015,CsCdCl3,2.492099999999999
mp-621994,NdOsO4,0.0
mp-631194,La3Ga4Cl,0.0
mp-645692,Eu(LuSe2)2,0.16440000000000002
mp-6474,Ba3MgNb2O9,2.651399999999999
mp-647579,ZnBr2,3.2203
mp-650178,Se5SO3F,1.4033
mp-691119,Bi14MoO24,2.6378999999999992
mp-698206,Ba5Re3O16,0.5102999999999991
mp-705037,Na4VP2O9,1.7472
mp-7203,Ce3Sn13Rh4,0.0
mp-752598,Mn(AsO2)2,1.968799999999999
mp-755177,EuSeO3,0.1233
mp-756122,Cs3TlO3,1.5973000000000002
mp-756400,NdBiO4,0.9265000000000001
mp-757594,Os(OF2)2,1.9089
mp-761779,K9(WO3)20,0.0
mp-762369,Y9U5O28,0.040599999999999005
mp-763805,Na7(WO3)9,1.0245
mp-770533,Li6MnO4,2.6041
mp-771323,Tm2Ti2O7,2.9789000000000003
mp-7851,TaCo3,0.0
mp-7917,HfGeSe,0.0
mp-800,TmB2,0.0
mp-8312,Ta5As4,0.0
mp-861908,TaTiRu2,0.0
mp-861988,PrAgHg2,0.0
mp-862375,Sc2TcHg,0.0
mp-862831,PaTiTc2,0.0
mp-863708,KPuO3,0.0
mp-864664,Na3Np(HO3)2,1.2404
mp-864668,NdSnAu2,0.0
mp-864757,YbN2,0.0
mp-864782,Ta2MoRu,0.0
mp-865021,Be2RuPt,0.0
mp-865322,UTlO3,0.328599999999999
mp-865382,V3Ru,0.0
mp-8654,PrSiRu,0.0
mp-865563,LuZnPd2,0.0
mp-865648,Yb2CdPb,0.0
mp-865649,Ti2TcRh,0.0
mp-865660,Yb2AgPt,0.0
mp-865995,YbSnAu2,0.0
mp-866067,Nd2CdIn,0.0
mp-866110,Ho2OsRu,0.0
mp-866292,Ba2TlCd,0.0
mp-866639,KSr2Cd2Sb3,0.1988
mp-866805,SrSn3Sb4,0.0
mp-867125,Al2RuPt,0.0
mp-867144,CaMgHg2,0.0
mp-867350,Ca2MgIn,0.0
mp-867803,LiCa2Cd,0.0
mp-8771,Lu2(NiB2)3,0.0
mp-9673,K2NiAs2,0.08999999999999901
mp-972337,Ti2IrW,0.0
mp-973675,Hf9AsW4,0.0
mp-974708,NdTmTl2,0.0
mp-977367,CdInRh2,0.0
mp-977375,HoBr3,2.847
mp-977567,Hf2CuRe,0.0
mp-978039,Ho4Ga16Co3,0.0
mp-979979,Sm3Sb4Au3,0.532799999999999
mp-980110,Th(NiSn)2,0.0
mp-980760,SmNiGe2,0.0
mp-985305,Ac3In,0.0
mp-9937,USbSe,0.0
mp-998611,RbSnCl3,2.3473
mp-999291,PrPd,0.0
mp-1005829,Sm2Mn12P7,0.0
mp-1006256,CeYTl2,0.0
mp-1006322,Ce(FeB)4,0.1466
mp-10065,UFe3B2,0.0
mp-1006574,Rb(Zr3Te4)4,0.0
mp-1007636,KLuS2,2.4628
mp-10114,ScB4Ir3,0.0
mp-1017554,CdNi3N,0.0
mp-1018048,LaNiC2,0.0
mp-1018720,HfVSi,0.0
mp-1018822,NdZnIn,0.0
mp-1019094,PrGeAu,0.0
mp-1019100,SmFeSi,0.0
mp-1019593,Ce(PO3)4,1.2295
mp-1019612,Cs4ZnO3,1.6759
mp-1025187,CdPPt5,0.0
mp-1025261,MgPPd5,0.0
mp-1025426,CeI3,0.0
mp-1025464,Sc3NiC4,0.0
mp-1029457,Ba(CoN)2,0.0
mp-1029775,BaMnN2,0.0
mp-103,Hf,0.0
mp-10321,La2ZnRhO6,0.0
mp-10651,YbSi,0.0
mp-1068300,Ca(FeAs)2,0.0
mp-1069042,Eu(ZnSb)2,0.0
mp-1070152,Ca(CoSi)2,0.0
mp-1077191,Li2Tl,0.0
mp-1077911,UGa5Os,0.0
mp-1078005,K(Cu2Sb)2,0.0
mp-1078668,NiPbO3,0.0
mp-1078825,SrCd2Pd,0.0
mp-1078837,DyZnPd,0.0
mp-1078886,Ce(AlAu)2,0.0
mp-1079534,EuP3,0.0
mp-1079677,GdSi2Ni,0.0
mp-1080661,Gd2SnAu2,0.0
mp-1094148,Mn2FeGe5,0.48960000000000004
mp-1095519,Eu2In,0.0
mp-1095553,TaCoP,0.0
mp-1095666,TbOs2,0.0
mp-10963,Ag2SnHgSe4,0.038999999999999
mp-1096897,CeCuPb,0.0
mp-1097067,CsReN2,0.0
mp-1100770,ThInRh2,0.0
mp-1100782,YbMg2,0.0
mp-1101257,Tm2Pt2O7,1.4709
mp-1101948,NbPRh,0.0
mp-1101964,PuB4Ru,0.0
mp-1102484,ThCoH4,0.0
mp-1102568,EuZnAu,0.0
mp-1102866,YbSiPt,0.0
mp-1103398,TmAsSe,0.18700000000000003
mp-1104066,TbB12,0.0
mp-1104074,Sr3Pt2,0.0
mp-1104413,Eu5Pt2,0.0
mp-1105706,Tb7CoI12,0.2911
mp-1105965,Er5Tl3,0.0
mp-1106159,Pr2Si5Pt3,0.0
mp-1112963,Cs3TiF6,0.0
mp-1113595,Cs2ErAgCl6,3.8081
mp-1113798,Rb2AgBiF6,2.7247999999999992
mp-11157,SmMgGa,0.0
mp-11169,Ba(PIr)2,0.0
mp-1123,HgS,0.0
mp-11263,Zr3Au,0.0
mp-11328,P2W,0.0
mp-11472,SrHg2,0.0
mp-11691,Nd2HgO4,2.223
mp-1173614,Nd20Mn19O60,0.0
mp-1183548,CaMgCd2,0.0
mp-1184337,BaMg149,0.362199999999999
mp-1184560,HfZnPd2,0.0
mp-1184567,Hf2TcIr,0.0
mp-1184978,Li2InHg,0.0
mp-1185013,LaYbPt2,0.0
mp-1185399,LiPm2Sn,0.0
mp-1186608,PmLuZn2,0.0
mp-1187538,YbPmCu2,0.0
mp-1188517,Eu5Bi3,0.0
mp-1188570,UTcC2,0.0
mp-1188689,Nd(YS2)3,1.0532
mp-1188905,U3Co3Sb4,0.0
mp-1188926,Sc3As2,0.0
mp-1189616,Ta3FeS6,0.0
mp-1189700,Pr4Mg7Ge6,0.0
mp-1191111,SrTi(PO4)2,2.617
mp-1191573,Tb2Mn12P7,0.0
mp-1191661,Dy3(GaNi3)2,0.0
mp-1191863,Pr2Fe12P7,0.0
mp-1191953,Nb3Al2N,0.0
mp-1192305,Dy3Si2Ni,0.0
mp-1192395,Hg3Bi2(TeCl4)2,3.0086
mp-1192533,Sr3AlAs3,0.980399999999999
mp-1192642,Tm8In3Co,0.0279
mp-1192643,Gd6Mg23C,0.0
mp-1192970,Y8In3Co,0.08889999999999901
mp-1193170,LaZn13,0.0
mp-1193554,Bi2Se3O10,3.2800000000000002
mp-1194313,Hf2(Ni7B2)3,0.0
mp-1194432,Sc3Si3Ir,0.0
mp-1194495,Ta2Au,0.0
mp-1195237,TaBRu,0.0
mp-1195674,Sr5V3BrO12,3.769199999999999
mp-1196250,Er(BRu)4,0.0
mp-1197827,Sr(BiS2)2,1.0318
mp-1197890,Li2Ti2(PO4)3,0.0461
mp-1197996,Sr5(Sb11O19)2,2.604599999999999
mp-1198185,BaGe2Au5,0.0
mp-1198327,Gd2Fe14B,0.0
mp-1199290,Cs6U2(Cu4S5)3,0.517199999999999
mp-1199361,Ho6Al43Cr4,0.0
mp-1199465,Ho6H40N8O49,2.925
mp-1199549,Ta4CoTe4,0.0
mp-1200338,Y15Ni32,0.0
mp-1200507,Hf2(NiP)3,0.0
mp-1200533,Yb(BRu)4,0.0
mp-1200969,B3Pb3NO10,3.014
mp-1201674,SmCo5P3,0.0
mp-1201871,Li7Si3,0.0
mp-1202213,Cs8Ga11Cl,0.925999999999999
mp-1203208,Cs3Hf2CuTe10,1.1315
mp-1203265,YCo3P2,0.0
mp-1203429,Tm2B6Os,0.0
mp-1203611,Ga2Cu3(SeO3)6,0.5061
mp-1204061,K4As2Se5,1.2066
mp-1205086,Yb3Sn13Ir4,0.0
mp-1205659,Tm2CoSi2,0.0
mp-1205845,Ba2GdUO6,0.8570000000000001
mp-1205937,PrMgTl,0.0
mp-1206001,YMn2SiC,0.0
mp-1206233,TbAlGe,0.0
mp-1206412,Nd2GaCo2,0.0
mp-1206583,CeRe2SiC,0.0
mp-1206716,TbNiAs,0.0
mp-1206763,Ba2ScUO6,0.849699999999999
mp-1206820,HoRu3C,0.0
mp-1207069,Ba2PuZnO6,0.6604000000000001
mp-1207686,TmTiClO3,3.1031
mp-1208096,TlBi(WO4)2,2.8103
mp-1208444,Ta3Tl2Cl9,1.3861
mp-1208505,Tb4C2Br3,0.0
mp-1209169,RbVSeO5,3.1186
mp-1209377,Pr2TeO6,2.9335
mp-1209387,Rb5In(MoO4)4,3.6035
mp-1209562,Rb2PrI5,3.0923
mp-1209575,Rb2NdI5,3.090499999999999
mp-1209693,Rb3Sb2I9,1.9451
mp-12097,Sm(SiIr)2,0.0
mp-1210145,NdCrGeO5,2.5595
mp-1210472,Na3La(BO3)2,3.7341
mp-1210498,Nd3Ho2(GaO4)3,3.026899999999999
mp-1211259,Lu6Ta4Al43,0.0
mp-1211443,KLa(MoO4)2,3.3086
mp-1212203,Ho5SbPd2,0.0
mp-1212283,Ho4CdIr,0.0
mp-1212434,HfTe7SeCl6,1.015
mp-1212485,Hf6CCl14,1.3768
mp-1212709,GaNi10P3,0.0
mp-1212883,Er12Co5Bi,0.0
mp-1212916,Eu3Al2O7,0.0
mp-1212972,Dy3In5,0.0
mp-1213214,Er3Al3Cr2O12,3.5602
mp-1213269,EuFeGe2O7,0.026899999999999
mp-1213303,Eu5Si3O13,0.0
mp-1213328,Eu3Sc2Al3O12,0.17289999999999903
mp-1213335,CsY(WO4)2,3.3844
mp-1213926,Ce3(Al3Os)4,0.0
mp-1213960,Ce2Ni3Ge5,0.0
mp-1214014,Cs2NaUBr6,0.5204
mp-1214081,Ca2ScTaO6,3.7328
mp-1214394,Ce3In4Ge,0.0
mp-1214561,Ba2TbWO6,1.7174
mp-1214565,Ba5(Sn3Bi2)3,0.0
mp-1214838,Al9Cr3Si,0.0
mp-1215456,YbErSe2,0.0
mp-1215552,Zr2AlFe3,0.0
mp-1216850,TiCuNi,0.0
mp-1217380,ThV2PbO8,2.4509
mp-1217985,Ta2MnV3,0.0
mp-1218562,Sr4LaTi5O15,0.0
mp-1218699,SrCaPb6,0.0
mp-1219294,ScNb2B2Ru5,0.0
mp-1219378,Sm14Ag51,0.0
mp-1219595,RbHgSbTe3,0.5501
mp-1219847,Pr2Ga5Au3,0.0
mp-1220159,NdGa3Pd,0.0
mp-1220349,NbB2W,0.0