material_id,pretty_formula,band_gap
mp-1186458,PaInRu2,0.0
mp-1186617,PmNdIr2,0.0
mp-1187813,YbCrTeO6,0.0
mp-1188129,ZrPt3,0.0
mp-1188368,Lu3Ge3Ru2,0.0
mp-1188934,Eu5Ge3,0.0
mp-1189094,Eu3Au,0.0
mp-1189512,Eu3Rh,0.0
mp-1189806,Yb2CuGe6,0.0
mp-1189897,Ba2ThS6,1.5247000000000002
mp-1190442,FeSeO3F,1.4097
mp-1190839,YMo2O7F,3.2298
mp-1191066,La3IrO7,0.0
mp-1191263,CeIn2Pd3,0.0
mp-1191623,Ce2Ni12As7,0.0
mp-1191859,Sm11In9Ni4,0.0
mp-1193568,Zr6Al16Ir7,0.0
mp-1193603,Pr4Mg5Ge6,0.129299999999999
mp-1194130,Zr4Pd2N,0.0
mp-1195291,Rb2Cu2Sb2S5,1.197499999999999
mp-1195475,K3SmSi2O7,3.615299999999999
mp-1195564,SmTl2P2S7,2.1369
mp-1195613,Sr2Al5Pd4,0.0
mp-1196026,CsEr10(C2I9)2,0.21880000000000002
mp-1196511,Pr8C8Cl5,0.0
mp-1196951,Ce2Te7Br2O17,1.1633
mp-1197065,Ba13Si6(Sn4As11)2,0.7270000000000001
mp-1197535,Y2Nb3Ge4,0.0
mp-1198658,Yb3Co4Sn13,0.0
mp-1198889,Dy5(Si5Ir2)2,0.0
mp-1199197,HC2N3,2.4343
mp-1199246,Ba5B3BrO9,3.7802
mp-1199467,Lu5Ge4,0.0
mp-1199792,Gd4(SiS4)3,1.1924000000000001
mp-1199917,Ho5P12Ru19,0.0
mp-1200323,Na3NbAs2O9,3.1451000000000002
mp-1200777,Er5(Ge5Rh2)2,0.0
mp-1202012,Na2Sn(S2O7)3,3.5073
mp-1202079,Ti21Mn25,0.0
mp-1202164,Tm3Co4Ge13,0.0
mp-1202255,AgSb(SeF3)2,1.1978
mp-1202354,Yb5Zr3(Ni4As3)4,0.0
mp-1202424,Li5La5(SiN3)4,2.521199999999999
mp-1203799,TiPb(S2O7)3,2.7366
mp-1204033,LaTlGeSe4,1.3103999999999991
mp-1204449,Cs2ZnI4,3.224
mp-1204729,Yb6Al43W4,0.0
mp-1205507,Eu2MgWO6,0.276599999999999
mp-12056,Ba(POs)2,0.0
mp-12058,Er(PRu)2,0.0
mp-1206019,Ce4SiI5,0.0
mp-1206051,NdAl2Ni,0.0
mp-1206330,DyAlSi,0.0
mp-1206346,MgPt7,0.0
mp-1206471,Lu7(TeRh)2,0.0
mp-1206536,Ba2InSbO6,0.523999999999999
mp-1206580,GdSnGe,0.0
mp-1206604,NdCdPd,0.0
mp-1206747,LuTl,0.0
mp-1206759,LiZrS2,0.0
mp-1207052,Sr2CrWO6,0.0
mp-12072,UAu2,0.0
mp-1207613,Yb2(Al3Ir)3,0.0
mp-1208,ErAl2,0.0
mp-1208222,Ti11CuP8,0.0
mp-1208320,TbNiP,0.0
mp-1208327,TbAl3Ni2,0.0
mp-1208359,TbSiNi,0.0
mp-1208531,Tb2Si3Pd,0.0
mp-1208849,SmZnGe,0.0
mp-1208868,Sm3W(ClO2)3,3.4917
mp-1209463,RbEu2Cl5,1.052099999999999
mp-1209497,Rb2Si2Se5,2.3037
mp-1209602,Rb5V3O10,3.0511
mp-1209726,Pr5(In2Pt)2,0.0
mp-1209740,Pr2MoO6,2.3288
mp-1209904,Nd(Al5Fe)2,0.0
mp-1209951,NaYbCu2F8,0.0
mp-1210893,Lu(Al5Fe)2,0.0
mp-1211126,LiSc(WO4)2,3.5641
mp-1211471,KP15,1.5233999999999992
mp-1211532,KTm(MoO4)2,3.5618
mp-1211656,KCr(SO4)2,3.1845
mp-1211936,K5Ta(TlAs2)2,1.5206
mp-1212069,Na2Sr(Ge4O9)2,2.9682
mp-1212106,HoZnSn,0.0
mp-1213064,Dy7Co6Sn23,0.0
mp-1213112,ErAlGeO5,3.7479999999999993
mp-1213142,Eu3Sn13Ir4,0.1086
mp-1213324,CsTb(WO4)2,3.444
mp-1213382,CsPr(NbBr3)6,0.977399999999999
mp-1213677,CsLa6FeI10,0.11959999999999901
mp-12137,Ca(ZnSi)2,0.0
mp-1214750,Ba(InPt)2,0.0
mp-1215459,YbAl3Au,0.0
mp-1215563,YbCu2Ni3,0.0
mp-1215627,Zr2VRe3,0.0
mp-1216057,Y2NiRu3,0.0
mp-1216685,TmAl7Fe5,0.0
mp-1216943,TiNb(PO4)3,2.7565
mp-1217125,Ti4GaC3,0.0
mp-1218798,Sr2Nd(FeO3)3,0.0
mp-1219064,SmCuGe,0.0
mp-1219071,SmEuB12,0.0
mp-1219334,Si2P3RhO13,2.038799999999999
mp-1219522,RuRh4,0.0
mp-1220044,Sm30(P4Ir5)13,0.0
mp-1220141,Ni8Bi8S,0.0
mp-1220541,Nb4GeSe8,0.0
mp-1221047,NaEr(MoO4)2,3.222499999999999
mp-1222165,Mn23(BC2)2,0.0
mp-1222647,Li2MgGa,0.0
mp-1222807,LaGe2RuRh,0.0
mp-1222941,LaGaNi4,0.0
mp-1222953,LaAs2Au,0.0
mp-1223358,Mn26As18CO57,0.0
mp-1223983,LaTi6(PO4)9,2.421299999999999
mp-1224118,Na17(Mo15S19)4,0.0
mp-1224386,Hf4GeSb7,0.0
mp-1224682,Gd2GaSbO7,2.3775999999999993
mp-1225642,Eu2Al6Si3Au2,0.0
mp-1225699,ErUTe6,0.0
mp-1226069,Co3SiMo2,0.0
mp-1226545,CeSiGePd2,0.0
mp-1226656,CeCu2SiGe,0.0
mp-1226812,Ce2ThS3,0.0
mp-1227680,CdHg6(Sb2I3)2,0.8608999999999991
mp-1228376,Ba3Fe2WO9,0.1307
mp-1229080,Ce5Cu19P12,0.0
mp-1238119,Be2Co(NF7)2,1.1763
mp-12388,Er3Al3NiGe2,0.0
mp-12480,ScPPt,0.0
mp-12537,Ti2GaC,0.0
mp-1256,HoGa2,0.0
mp-12599,PrTl,0.0
mp-12752,Zr4Al3,0.0
mp-12780,Sr(GaAu)2,0.0
mp-12984,TbCuSe2,0.8242
mp-13010,YSn2,0.0
mp-1308941,Ca3MnCoO6,2.0785
mp-13396,LiIn2Rh,0.0
mp-13545,BaIrF6,0.0
mp-14410,Tl6TeO12,0.45939999999999903
mp-14836,Pr4Si2Se3O7,2.6199
mp-14929,KV3P4O17,1.3954
mp-1549,TbPt3,0.0
mp-1618,PPd6,0.0
mp-16517,TmAl2Ni,0.0
mp-16524,ScAlPd2,0.0
mp-1675,Ho3Ge4,0.0
mp-16821,Ba3PrRu2O9,0.0
mp-17100,In2P2O7,3.7008
mp-17101,CaNb2O6,3.6249000000000002
mp-1711,Er3Ge4,0.0
mp-17230,Nb5GaSn2,0.0
mp-17412,BaPr2O4,3.0759
mp-17464,SrGeO3,3.6032
mp-17649,TlSnF7,1.8405
mp-17899,Mn3V2O8,1.9247
mp-18134,Sr3YbRhO6,0.0
mp-1878,HfBe13,0.0
mp-1882,CaCu5,0.0
mp-18846,Na4(CoO2)7,0.0
mp-18850,BaYMn2O5,0.0
mp-19011,Ba2NiTeO6,0.0
mp-1927,Dy4Sb3,0.0
mp-19323,SmVO4,3.0109
mp-1944,CoP3,0.0
mp-19918,GdGe,0.0
mp-19939,La(CoGe)2,0.0
mp-20111,EuAl2,0.0
mp-20226,UGeIr,0.0
mp-20262,Pu3Pb,0.0
mp-20265,LiIn2Pt,0.0
mp-20524,Sc2VB2Ir5,0.0
mp-20533,SrIn2Pt,0.0
mp-20582,LaIn,0.0
mp-20587,EuS,0.0
mp-2059,NbAs,0.0
mp-20626,DyTiGe,0.0
mp-2080,SrBe13,0.0
mp-20848,TmIn,0.0
mp-2090,FeCo,0.0
mp-20908,Ce(BC)2,0.0
mp-210,BaLi4,0.0
mp-21529,La3(GaNi)2,0.0
mp-21672,Eu(Ni5P3)2,0.0
mp-21763,Nd(Cu2P)2,0.0
mp-21793,HoSi3Rh5,0.0
mp-2186,NpAs,0.0
mp-21952,Eu(In4Rh)2,0.0
mp-22129,DyGaPd,0.0
mp-22180,Dy(GePd)2,0.0
mp-22236,In3Co,0.0
mp-22327,PuGa3,0.0
mp-22722,NbSiPd,0.0
mp-23234,TmBi,0.0
mp-23487,KIO3,2.949299999999999
mp-2395,Sb3Rh,0.22509999999999902
mp-24727,TmH2,0.0
mp-26077,Li3Fe3(PO4)4,1.7929
mp-2626,Zr3Rh5,0.0
mp-2644,CoSb,0.0
mp-27169,KTa5O13,3.1471999999999998
mp-27212,Sb2IF15,3.8902
mp-27321,Na3(CuS)4,0.0
mp-27997,Ca3Al2Ge3,0.0
mp-2802,HfRu,0.0
mp-28160,Ca3C3Cl2,1.3268
mp-28334,Tl4SiSe4,1.4648
mp-28535,Ca2Se3O8,3.438499999999999
mp-28808,TlReO4,3.3718999999999992
mp-28863,Y6OsI10,0.0
mp-28864,Y6IrI10,0.065499999999999
mp-28919,Hf3Te2,0.0
mp-29129,K2Te2O5,3.3858
mp-29135,Zr6CoAs2,0.0
mp-29412,Ta3Br7,1.2682
mp-29637,K4MnBr6,2.357
mp-29642,ZrBi2,0.0
mp-30232,Tb3SiBr3,0.0
mp-30279,NpIO5,0.08720000000000001
mp-30467,Bi4Rh,0.0
mp-30634,HoFe3,0.0
mp-30737,YMgAg,0.0
mp-30750,CeAl4Ni,0.0
mp-308,U3O8,0.034599999999999
mp-30828,Sr2Pb,0.036299999999999
mp-30861,PuZn2,0.0
mp-30870,SmZn12,0.0
mp-31022,Hf2Si4Ru3,0.0
mp-31258,Pr2MoC2,0.0
mp-31280,K4P21I,1.2638
mp-31293,Eu2Sn5Au2,0.0
mp-31298,ErSnRh,0.0
mp-31310,Zr3(Mn2Si3)2,0.0
mp-317,SnRh,0.0
mp-3291,AgTe4Au,0.0
mp-364,AlRh,0.0
mp-3706,Ho2Co12P7,0.0
mp-3787,RbFe2S3,0.0
mp-4394,Pr2Sn2O7,2.8382
mp-5019,YCo3B2,0.0
mp-504714,Ni3B7IO13,2.37
mp-504827,Ga10GePb3O20,3.109199999999999
mp-505490,Rb4SnSb6,1.062999999999999
mp-505598,Zr(Ni2P)2,0.0
mp-505805,Pr2Ni7P4,0.0
mp-5094,Co2(GeSe)3,0.37370000000000003
mp-510086,Ca2InN,0.0
mp-510188,HfGa,0.0
mp-510528,GdCuSe2,0.6082999999999991
mp-510564,NdIn5Rh,0.0
mp-531021,Li11Mn13O32,0.0
mp-531472,Li2UBr6,0.3259
mp-5372,RbFeS2,0.0
mp-541393,K3NaRe2O9,1.823099999999999
mp-541966,KAgCO3,2.2459
mp-542382,ThTl,0.0
mp-542988,Gd(CoGe)2,0.0
mp-543029,La2TeI2,0.0
mp-546621,ErBi2BrO4,1.4237
mp-546665,BaNdMn2O5,0.0
mp-5514,TbCuSi,0.0
mp-554225,CsFeF4,0.0
mp-554501,Ba5Os3ClO15,0.6081000000000001
mp-554699,GePbO3,2.972299999999999
mp-554873,Ag2B8O13,3.2653
mp-555225,Bi2Rh2O7,0.0
mp-555393,KBi6BrO9,2.3298
mp-555510,Sr2YbRuO6,0.0
mp-556129,Cs2Zr(IO3)6,3.4585
mp-556425,SbF4,3.4408
mp-556705,AsS(ClF2)3,3.7779
mp-556716,ZnS,1.213299999999999
mp-558007,Sm(IO3)3,3.597299999999999
mp-558525,V4Fe2O13,2.3411
mp-558928,KrF2,2.854
mp-559672,KNiAsO4,2.8112
mp-559861,NbBi(TeO4)2,2.352
mp-560000,Ce2Ti2SiO9,0.0
mp-560597,Na8Si6SnO18,3.8226
mp-560630,NdTl(MoO4)2,3.6156
mp-560633,Al2SnCl6O,3.959
mp-560955,Ba2Mn3(SeO3)6,0.9917
mp-561045,Ba8Ce3(SbO6)4,2.1072
mp-561343,Fe3(TeO3)4,1.8411
mp-561454,KAu(SO4)2,1.46
mp-561541,K2CrSO7,2.471199999999999
mp-562263,Cs2PbO2,2.0171
mp-562441,Cs3AlO3,2.268799999999999
mp-562726,CsGaS3,2.4892
mp-567491,Rb4Ti2P6Se25,1.1898
mp-567566,Ho7FeI12,0.0
mp-567775,La10C4I15,0.0
mp-568385,SrLiGaN2,1.840399999999999
mp-568630,LuRu2,0.0
mp-568827,Be12W,0.0
mp-569387,Cs2Lu7CCl18,0.0
mp-569434,Yb2(ZnGe)3,0.0
mp-569435,KBi(PSe3)2,1.6574
mp-569507,TbTlSe2,1.4481000000000002
mp-569825,Dy10Si17,0.0
mp-570014,YbSbPt,0.0
mp-570292,La7Os4C9,0.0
mp-570527,Yb5Au4,0.0
mp-570843,Tm(GeRh)2,0.0
mp-571071,HoSi2Rh3,0.0
mp-571133,NbSe2,0.0
mp-571500,Ho(FeB)2,0.0
mp-571580,Er14(InPd)3,0.0
mp-571599,Ba(BiPd)2,0.0
mp-571608,Yb3Ag2,0.0
mp-571664,Zr2Rh,0.0
mp-572998,Lu(IO3)3,3.515
mp-574448,RbGd2CuSe4,0.8567
mp-574684,Na2SnAs2,0.4777
mp-580539,Gd3AlC,0.0
mp-581294,BaP2(XeF5)4,2.702499999999999
mp-582924,Zr6Fe23,0.0
mp-5843,Ce(PO3)3,0.1188
mp-6011,Ba4LiMo2N7,1.773299999999999
mp-613052,Eu2PBr,0.0
mp-614481,GdBi,0.0
mp-6265,Ba2TbSbO6,3.5147999999999993
mp-637308,Ce5Sn3,0.0
mp-640274,La3Sn13Rh4,0.0
mp-642293,Y6Te2Pd,0.0
mp-642304,Ba(Ge3Pt)4,0.0
mp-642651,Yb2Ge4Ru3,0.0
mp-643071,Yb4Mg4Fe3H22,1.4719
mp-646565,NaCe4I7N2,0.0
mp-649608,K3Pr2(NO3)9,3.4494
mp-6520,Ba3MgRu2O9,0.0
mp-657,YbZn2,0.0
mp-667286,Re6Te7Se8,0.9527000000000001
mp-669578,Rb2Gd4Cu4S9,0.7547
mp-672368,UVN2,0.0
mp-6798,Ba2NaReO6,1.917399999999999
mp-680312,La6Ti3Se9O5,0.056299999999999004
mp-684844,Pu2Te3,0.0
mp-694,VSe2,0.0
mp-702,CeHg,0.0
mp-707182,UAsH9O10,2.5299
mp-721,TbCd,0.0
mp-735662,Fe4As10PbO22,0.2655
mp-755657,TiVO3,0.0
mp-7570,RuF3,0.0
mp-757936,LiCoPO4,3.1546
mp-764744,V2OF5,1.8688
mp-7948,ReSi,0.0
mp-8343,Na3CrP8O23,3.4911
mp-8470,NaPrO2,3.200199999999999
mp-861625,LiZnAg2,0.0
mp-861738,CaMgPb,0.0
mp-862609,ScReTc2,0.0
mp-862732,PmZn3,0.0
mp-862814,PaSiTc2,0.0
mp-862889,PmCdAg2,0.0
mp-862912,PmHgAu2,0.0
mp-864957,MnSbRu2,0.0
mp-864975,Mg2PdPt,0.0
mp-865259,HoHg3,0.0
mp-865560,Y2AlZn,0.0
mp-865599,Lu2RuPt,0.0
mp-865623,Lu2IrRh,0.0
mp-865813,YbMgTl2,0.0
mp-866214,LuBr3,3.0959
mp-867165,Pm3Si,0.0
mp-867187,ScInIr2,0.0
mp-867235,LiY2Ir,0.0
mp-867252,LiZn2Ni,0.0
mp-867795,ScNbTc2,0.0
mp-867807,LiYTl2,0.0
mp-867849,Ca2TlCd,0.0
mp-867862,SmMgAg2,0.0
mp-867865,ReRh3,0.0
mp-867900,DyCdRh2,0.0
mp-867924,LiCdPd2,0.0
mp-878,Ho2S3,1.4626000000000001
mp-9035,NaLuS2,2.435
mp-9357,Th(CrB3)2,0.0
mp-940,GdN,0.0
mp-9518,NdZnPO,1.243799999999999
mp-971914,SrSiPt,0.0
mp-972623,SmHgAu2,0.0
mp-974063,HoScRu2,0.0
mp-9741,Na3Cd2IrO6,0.0
mp-974221,HoErTl2,0.0
mp-974527,NdSmZn2,0.0
mp-975144,RbZn4As3,0.9092000000000001
mp-977440,LiTiPt2,0.0
mp-977578,Zr2TcPd,0.0
mp-978563,SmHoIn2,0.0
mp-978987,SrGe3Pd,0.0
mp-980195,Tm6Al7Cu16,0.0
mp-981548,YErTl2,0.0
mp-985701,AgAs3H2O9,0.8276000000000001
mp-989543,Cs2BrCl6F,1.2145000000000001
mp-997010,TlAgO2,0.0
mp-999298,Pd3Au,0.0
mvc-14156,MgCuF5,0.0
mp-1002115,LaPd,0.0
mp-1003312,KMn4O8,0.27940000000000004
mp-10063,CdSnSb2,0.0777
mp-1013525,VS2,0.0
mp-1018770,Li3PrBi2,0.0
mp-10193,LuPPt,0.0
mp-1020704,Sr2Ge(S2O7)4,3.4268
mp-1025096,ErZn2,0.0
mp-1025155,LuGa5Co,0.0
mp-1025413,ThSi2Ni,0.0
mp-1029550,Ca2CrN3,0.0
mp-10443,YbSiAu,0.0
mp-10527,Y2AlSi2,0.0
mp-1066975,TmSi,0.0
mp-1067587,TaP,0.0
mp-1068283,Tm2InNi2,0.0
mp-10688,CeO,0.0
mp-1069790,U2RhC2,0.0
mp-1070925,LaPRh,0.0
mp-1071848,Pr2Sb,0.0
mp-1072264,TbCu4Ag,0.0
mp-1077443,NdScSb,0.0
mp-1077738,YbCdNi4,0.0
mp-1078257,Sr(SnHg)2,0.0
mp-1078539,Sr2MgMoO6,2.3655
mp-1079341,DyZnNi,0.0
mp-1079460,Ti3Sn,0.0
mp-1080033,SiNiPd,0.0
mp-1080183,La(PRh)2,0.0
mp-1080713,Er2Ni2Sn,0.0
mp-1080714,Li2AgSn2,0.0
mp-1080740,PrMgPd,0.0
mp-1091363,K2TcF6,1.7315
mp-1093991,ZrAsIr,0.46889999999999904
mp-1095083,Sm2CdGe2,0.0
mp-1095545,ZrTc2,0.0
mp-1095610,ZrGePt,0.0
mp-1095653,Yb3(CuGe)4,0.0
mp-1095672,Ta2V3Si,0.0
mp-1101809,SrCdGe,0.0
mp-1102413,GdGeIr,0.0
mp-1103550,NdGaNi,0.0
mp-11037,Lu(Al2Fe)4,0.0
mp-1103807,Eu(GaTe2)2,0.0
mp-1103857,U(Mn2P)2,0.0
mp-1103943,ErGa3Ru,0.0
mp-1104050,Y(AlC)3,0.0396
mp-1104199,Nd3Pd4,0.0
mp-1104661,Ca3Pd2,0.0
mp-1104838,GdGa6,0.0
mp-1104864,Tb3Pt4,0.0
mp-1104880,Lu5Re2C7,0.0
mp-1105974,PrGePd2,0.0
mp-1106152,Nd5Pb3,0.0
mp-1106196,Lu4Ga12Ni,0.0
mp-1106245,Zr5AlSb3,0.0
mp-11082,CeCdAu,0.0
mp-1111239,K2NaBiCl6,3.8149
mp-1113,BW2,0.0
mp-1114428,Rb2LiSbCl6,2.9381999999999993
mp-11397,Ga3Ni2,0.0
mp-11401,ScGa2Ni,0.0
mp-11539,SmAl3Pd2,0.0
mp-1173284,Sr2FeMoO6,0.6149
mp-1173352,PmPaO4,2.7876000000000003
mp-1178450,Cs6Ge2O7,2.9128
mp-1179530,SmInCu,0.0
mp-1183037,ZrZnAu2,0.0
mp-1183068,Ac2CdGa,0.0
mp-1184,La2C3,0.0
mp-1184151,Cs,0.13620000000000002
mp-1184408,EuInHg2,0.0
mp-1184593,Ho2IrPd,0.0
mp-11854,Er5Ge3,0.0
mp-1185584,Mg149Cl,0.11669999999999901
mp-1186535,PmAs3,0.0
mp-1186598,PmHoIr2,0.0
mp-11870,Hg2Rh,0.0
mp-1188435,Y2Co3Si5,0.0
mp-1188487,Zr5SnPb3,0.0
mp-1188507,Zr5Sn3P,0.0
mp-1188762,TaNiP2,0.0
mp-1189037,Ce2Co3Si5,0.0
mp-1189721,Er6CoBr10,0.014299999999999001
mp-1189828,YCu6ClO8,0.0
mp-1189967,Pr3Os,0.0
mp-1190439,Sm2Co3Ge5,0.0
mp-1190638,DyGePd,0.0
mp-1190679,PrSi2Ni9,0.0
mp-1190904,Tb3Si2Ni,0.0
mp-1191359,ErB4Ru,0.0
mp-1191413,YRh3,0.0
mp-1191613,AsS2,1.2919
mp-1191636,CsCdBO3,1.6491
mp-1192126,Zn2TeMoO7,3.4583
mp-1192454,Ti(NbS2)4,0.0
mp-1192547,Ba2U(PO5)2,2.1981
mp-1192668,KV3Ge2O9,1.653
mp-1192722,Te7RuI6,0.8648
mp-1193614,Eu3InP3,0.0
mp-1193699,Tb2(Ga3Co)3,0.0
mp-1193822,Sc3Si3Rh,0.0
mp-1194230,Zr6Zn16Cu7,0.0
mp-1195071,HgP2Xe5F22,2.0719
mp-1196071,Ba2Fe2O5,1.6103
mp-1196301,La2Mn(SeO)2,1.6510999999999991
mp-1196877,BaAl4(SbO6)2,3.2625
mp-1197522,TmNiSn2,0.0
mp-1197590,Ho3Ga5,0.0
mp-1198074,Hf(TlS)4,1.548299999999999
mp-1198596,Li2P7(H3N)9,2.0968
mp-1198940,Nd3Co4Sn13,0.0
mp-1199667,Tl2(ReS2)3,1.426899999999999
mp-1200148,Er11(In3Si2)2,0.0
mp-1200171,Cs3VS4,1.9594
mp-12004,Er2Al3Si2,0.0
mp-1200467,Cs4(BS)9,3.2448
mp-1200700,Pr3Zn22,0.0
mp-1200898,Sm3Sn13Ir4,0.0
mp-1201043,Rb2Sn2H3N,1.157
mp-1201705,TiCoGe2,0.0
mp-1202716,S2I2O11,2.6163
mp-1203312,La21Mn8Sb7C12,0.0
mp-1203760,Si7Tc4,1.065000000000001
mp-1203917,Cs3ScCl6,3.984
mp-1205372,VCl4,0.0
mp-1205803,Ba2ErTaO6,3.393399999999999
mp-1206016,PrInPt,0.0
mp-1206129,Rb(AsRu)2,0.0
mp-1206181,GdIn5Rh,0.0
mp-1206215,Er4Ni2C5,0.0
mp-1206544,SrTl2Pt,0.0
mp-1206608,K2VCl6,0.0
mp-1206718,YNiAs,0.0
mp-1207599,Yb2Si,0.043699999999999004
mp-1207626,Yb2(Ga3Rh)3,0.0
mp-1207627,YGePd2,0.0
mp-1207795,Y3(SiNi3)2,0.0
mp-1207805,VSi3Mo4,0.0
mp-1207818,Y4CdPd,0.0
mp-1208319,TbTiClO3,3.1847
mp-1208573,Tb12Co5Bi,0.0
mp-1209061,Sc4Ge6Ir7,0.0
mp-1209533,RbGaBr4,3.2763
mp-1209920,Nd2(Al3Rh)3,0.0
mp-1209969,NaHo(Pd3O4)2,0.061799999999999
mp-1210474,Na5(Sn5Hg)2,0.0
mp-1210556,Lu5In4,0.0
mp-1210858,Pr12Ni6Pb,0.0
mp-1211033,Lu12In2Fe3,0.0
mp-1211213,Li3Tb3(TeO6)2,3.1868
mp-1211258,La3TiGa5O14,3.1425
mp-1211631,K3Tb(BO3)2,3.210899999999999
mp-1211862,KEuF4,0.2864
mp-1212464,Hf6Al16Ir7,0.0
mp-1212669,Gd5B3O13,0.0
mp-1212806,DyNiAs,0.0
mp-1212863,Dy5BiPt2,0.0
mp-1213003,Eu2CoPtO6,0.0
mp-1213147,CsSm(WO4)2,3.4892
mp-1213624,Ga2(MoO4)3,3.6554
mp-1213692,CsAg3Te2,0.400999999999999
mp-1213847,Ce(ZnP)3,0.0
mp-1214275,Ce(AlBr4)3,0.346199999999999
mp-1214530,Ba6Lu2Al4O15,3.8537999999999992
mp-1214605,Ba6Dy2Ga4O15,3.589699999999999
mp-1214915,Al3(V3C2)4,0.0
mp-1215195,ZrUC2,0.0
mp-1215832,YUTe6,0.0
mp-1216138,Y3CBr3,0.0
mp-1217247,Ti4CoNi,0.0
mp-1217478,TbSi2RuRh,0.0
mp-1217923,TaNi6Mo,0.0
mp-1218055,Ta7S12,0.0
mp-1218379,Sr4GaSi3,0.0
mp-1218725,Sr2P7Rh12,0.0
mp-1218913,SmYSe2,0.0
mp-1219105,SmAl3Cu,0.0
mp-1219533,ReIr,0.0
mp-1219695,Rb4Mn(MoO4)3,3.1528
mp-122,Ba,0.0
mp-1220258,NdGa2Ni3,0.0
mp-1220592,Nb6Pd2Se15,0.0
mp-1220971,Nd(GaFe)6,0.0
mp-1221565,MnTlCuSe2,0.05859999999999901
mp-1222615,Li2MgSn,0.0
mp-1223565,La20Mn8Te7C12,0.0
mp-1223885,K(ThTe3)2,0.0
mp-1224333,Hf2HC,0.0
mp-1224549,GdZnSi,0.0
mp-1224978,FeCo3S8,0.0
mp-1225152,EuGa3Cu,0.0
mp-1226486,CeThB12,0.0
mp-1228258,Ba5Li2(TeO5)3,1.209199999999999
mp-12384,NaEr(PS3)2,2.605799999999999
mp-12386,ErSi3Ni,0.0
mp-12516,NdZnSbO,0.1859
mp-12574,Dy2C,0.0
mp-1288982,SrLaVO4,1.7713
mp-12911,Ba2LaRuO6,0.2614
mp-12975,Sm2CdPd2,0.0
mp-13436,PrMgNi4,0.0
mp-13931,Ba2TbReO6,0.0
mp-14391,Na3VP8O23,2.4174
mp-15107,KSnAsO5,2.135799999999999
mp-1568,K3P11,1.9334
mp-1630,Zr3Hg,0.0
mp-16343,LiInGe,0.0
mp-16471,Np(GeRh)2,0.0
mp-1657,UAs2,0.0
mp-16641,YbSn2Pd,0.0
mp-1666,Th2S5,2.115900000000001
mp-17102,Ba4Ir3O10,0.0
mp-17367,Mn2SiSe4,0.0
mp-17481,Mg4Ta2O9,4.212099999999999
mp-17777,Sr5As3O12F,3.9034
mp-17836,BaNd2BeO5,3.873
mp-17904,Nd2TiO5,3.3475
mp-18291,BaSbTe3,0.375999999999999
mp-18536,AgF3,0.20719999999999902
mp-1887,MoP2,0.0
mp-18956,SmCrO4,0.0
mp-19014,Sr2CdWO6,3.3586
mp-19660,Sr2V2O7,3.453999999999999
mp-19976,Ce4S3O4,0.0
mp-2,Pd,0.0
mp-20084,GdRh2,0.0
mp-20136,BaPb,0.0
mp-2015,Nd3Ge5,0.0
mp-2026,PrTl3,0.0
mp-20322,La(CuGe)2,0.0
mp-20541,V2P,0.0
mp-20614,EuMnO3,0.0
mp-20708,In2Ni3S2,0.0
mp-20712,EuGe,0.0
mp-20917,U2Fe3Ge,0.0
mp-20919,Rb3CrF7,1.483
mp-2092,CePd3,0.0
mp-21287,Gd(SiAg)2,0.0
mp-21628,Mn6Ni16As7,0.0
mp-21816,Ho5(Ge5Rh2)2,0.0
mp-22007,CsIn5S8,1.5399
mp-22125,Np(CoGe)2,0.0
mp-22303,Rb3InS3,2.2968
mp-22665,AgAsPbS3,1.4281000000000001
mp-23048,CsMnBr3,0.0
mp-23118,CsEr6CI12,0.252
mp-23679,PuH3,0.0
mp-23954,Na2H2Pd,0.0
mp-24050,LaCrHO5,2.6123000000000003
mp-24237,ScH2,0.0
mp-24805,LaNiSnH2,0.0
mp-2606,BaPd5,0.0
mp-26226,V(PO3)3,2.246099999999999
mp-2698,YCu2,0.0
mp-27175,InOF,1.330699999999999
mp-27195,In4Bi2S9,1.713499999999999
mp-27213,AuBr3,0.8069000000000001
mp-27220,Tl5SbO5,1.535299999999999
mp-27496,YUO4,0.0
mp-27760,PrSi2,0.0
mp-27786,SbAs2Cl13,1.1842
mp-2797,YCu5,0.0
mp-28126,K2GeTe4,1.1202
mp-28226,MnCr2O4,2.2026
mp-28296,Ba3GaSb3,0.34189999999999904
mp-28346,SrSe2O5,3.343499999999999
mp-28348,Ba2As2Se5,1.0223
mp-286,YbSe,2.032499999999999
mp-28610,CsAgCl3,0.0
mp-28757,Nd(AlBr4)3,3.3848000000000003
mp-28786,Zn(BIr)2,0.0
mp-28859,K2HgS2,2.1351
mp-29088,Sr3(GeN)2,0.0
mp-292,V3As,0.0
mp-29462,NaGa3Te5,0.9918
mp-29690,Tl2Te2O5,2.7520000000000002
mp-29718,AgW3Br7,2.6778
mp-29887,Pr(ClO4)3,4.8980000000000015
mp-29994,La3C2Br3,0.0
mp-30267,CeGa4Os,0.0
mp-30313,Tb2Se2O7,3.2221
mp-30324,Mg5(Si8Pt5)2,0.0
mp-30352,NaAg2,0.0
mp-30584,HoCu2,0.0
mp-30840,Ti2Pd3,0.0
mp-30872,ThSn2,0.0
mp-30934,As(S8I)3,2.5848
mp-31037,CuTe2I,0.8797
mp-31088,Dy2Pd2Pb,0.0
mp-31295,La3(Sn3Pd2)2,0.0
mp-31339,ScInPd2,0.0
mp-31380,SmPd,0.0
mp-31383,Hf6CoBi2,0.0
mp-31441,Li2GaIr,0.0
mp-31624,Sr2TaCrO6,2.8441
mp-3204,YbSnPd,0.0
mp-3348,LiBIr,0.0
mp-3390,Y(CuSi)2,0.0
mp-34309,Pr2EuS4,0.2984
mp-3541,CeNiGe2,0.0
mp-3585,La(SiIr)2,0.0
mp-3719,Rb3NbS4,2.4442
mp-37255,Na2RuO3,0.0
mp-3880,Cr2CuSe4,0.0
mp-4247,NaZnSb,0.0
mp-4323,Nd(SiPd)2,0.0
mp-4370,Sr(AsPd)2,0.0
mp-4396,Ba(NO3)2,3.6327
mp-4402,La(CoP)2,0.0
mp-504510,MgV2O6,2.7764
mp-505005,CeSiOs,0.0
mp-505064,Nb2P,0.0
mp-505267,Np2Si4Tc3,0.0
mp-505271,Ni(SbO3)2,0.0
mp-505396,CsNa3PbO4,1.4987
mp-505496,RbP4N7,3.7041
mp-510015,Ba2CoSi2O7,3.1616
mp-510098,EuAu5,0.0
mp-510536,MoO2,0.4718
mp-5166,Ca(AsPd)2,0.0
mp-530449,Ca3(AsO4)2,3.6298
mp-540796,Cs2Sn2O3,2.549699999999999
mp-541102,Sc6C2I11,0.3926
mp-541137,BaCr2O4,2.2386
mp-541347,Er2Au5F21,1.700899999999999
mp-541640,Nd4Os6O19,0.0
mp-541712,Ce3Si6N11,0.0
mp-542170,Lu5(Si5Ir2)2,0.0
mp-546266,DyBi2IO4,1.3936
mp-549490,KNb4O5F,0.0
mp-5497,Er(CoGe)2,0.0
mp-5505,U2TeN2,0.0
mp-552934,Ba2CuBrO2,2.3279
mp-554119,KSnAsS5,1.712
mp-554310,TlBiS2,0.553399999999999
mp-555184,SmTiClO3,3.2091
mp-555206,KLiCrO4,2.853399999999999
mp-555596,K6Si2S6O,3.1515
mp-555629,SbTe(ClF2)3,3.747
mp-556221,Ni(XeF7)4,2.240599999999999
mp-556428,Ba3Fe2Br2O5,2.4088
mp-556481,SrU(SeO4)2,1.9684
mp-556730,CaU(MoO4)4,2.0273
mp-556910,Sm3SiS6Cl,2.5585999999999993
mp-557018,Cs(CoS)2,0.0
mp-557301,K2Ti(Si2O5)3,3.4251
mp-557787,TlSbO3,2.4363
mp-558248,PrTa3O9,3.2156000000000002
mp-558558,Ca3WCl2O5,3.945699999999999
mp-558568,Rb2CdSiO4,2.4868
mp-559037,Rb3Nb6SBr17,0.5826
mp-559969,CaLaGaO4,3.5016
mp-560050,SrMo2(PO4)4,2.3566000000000003
mp-5601,HoCoSn,0.0
mp-560490,La2C2N4O,3.3315
mp-560628,CsFe(SO4)2,2.384099999999999
mp-560901,PdSCl,0.9775
mp-561018,Na3Sc2(BO3)3,3.726099999999999
mp-561135,Fe3B7IO13,0.3047
mp-567690,TbMg4Cu,0.0
mp-567701,Ba21Al40,0.0
mp-567753,La3CuSnSe7,1.2908
mp-567842,TaBe12,0.0
mp-568002,HfI3,0.0
mp-568059,LuBi,0.0
mp-568153,Al22Mo5,0.0
mp-569026,Nb10Se40I3,0.0
mp-569237,Ga(BiCl)4,1.422699999999999
mp-569590,Yb4Sb6Rh7,0.0
mp-569810,Sr2BIN2,3.020099999999999
mp-569813,In5AgTe8,0.294199999999999
mp-569871,Tm6CoBi2,0.0
mp-570026,ErAgGe,0.0
mp-570135,SnHg7(P2Br3)2,1.6483
mp-570417,Bi6PtCl10,1.5756000000000001
mp-570757,Nb2Tl3CuSe12,0.982599999999999
mp-571228,Rb5Sn(PSe5)3,1.0909
mp-571260,AlInI4,3.0259
mp-571412,RbNa5(WN3)2,1.8426
mp-571473,K2Sm2As2Se9,1.1005
mp-573274,CsNb3SBr7,0.000299999999999
mp-574266,MgGa,0.0
mp-5748,HfAlNi2,0.0
mp-579496,Fe3PtN,0.0
mp-581754,Eu(PPd)2,0.0
mp-582856,EuZr6(PO4)9,0.0
mp-5909,Zn2GeO4,1.9737