material_id,pretty_formula,band_gap
mp-558426,CsSiBiS4,2.5012
mp-558952,Sr2VClO4,3.7633
mp-559160,NaSmSe2O7,3.340099999999999
mp-559378,Ba5Ta2Cl2O9,3.5216000000000003
mp-559484,Ba11(OsO6)4,0.0
mp-559613,K6Se2O9,1.6318000000000001
mp-559923,Nb(PS4)2,1.2763
mp-560407,KNbSi2O7,3.4311
mp-560513,Gd3Si2Cl5O6,2.5738000000000003
mp-560523,La3Si2S8Br,2.580899999999999
mp-561132,K2Ge2PbS6,2.252199999999999
mp-561268,As3Pb2ClO6,3.393
mp-561312,KHfCuF7,0.023799999999999003
mp-562669,CoP4O11,2.9324000000000003
mp-5640,ErSnAu,0.008899999999999
mp-567093,Yb(SiOs)2,0.0
mp-567164,BRh,0.0
mp-567527,Eu(Al10V)2,0.0
mp-567568,SrCa2WN4,2.6134
mp-567579,Ce2Si4Pt7,0.0
mp-568329,K3Na2SnBi3,0.006600000000000001
mp-568673,Y(SiRu)2,0.0
mp-569637,La4C2Cl5,0.0
mp-569806,K5Na(Ti2Se9)3,0.8224
mp-569842,Ba3SiI2,0.253899999999999
mp-570241,K6PdSe20,0.9558000000000001
mp-570254,ThBC,0.0
mp-570566,Rb5Ta(TlAs2)2,1.4405000000000001
mp-570568,W2NCl8,0.163
mp-571061,Nb3Se10Cl3,1.093
mp-572672,Co(IO3)2,2.057499999999999
mp-572794,ReP(Cl2O)3,1.866099999999999
mp-572944,CsUCrO6,1.6729999999999992
mp-573150,Cs2GeO3,3.0623
mp-573581,Na2TeSe3,1.3504
mp-581419,K3Nb2Cu3S8,1.8652000000000002
mp-581471,Nd(CoB)4,0.0
mp-582433,Gd(NiAs)2,0.0
mp-5910,CaCuSb,0.0
mp-604453,CeBiPd,0.0
mp-605835,Nd4MgRu,0.0
mp-607139,ZrSnIr,0.0
mp-607525,Ba11(Cd4Bi7)2,0.0
mp-614724,Cs3CrF7,0.0
mp-616220,Rb3(Cu4Se3)2,0.0
mp-616501,InCu6ClO8,0.0
mp-619571,ScU8S17,0.0
mp-630711,CsGdSiS4,1.7728000000000002
mp-632,TmCo2,0.0
mp-639,US2,0.0
mp-639714,TlVTeO5,2.3548
mp-644483,Ti3SnH,0.0
mp-648007,Tl2Mo4O13,0.0
mp-649253,NbClF8,3.2636
mp-675056,Na3(TiS2)10,0.0
mp-675286,Ca3UN4,1.4214
mp-675527,La(WO3)11,0.0
mp-679,Er2O3,3.9817
mp-679927,Rb2Sc(NO3)5,3.1245
mp-680191,Na2Ti2Se9,0.7579
mp-680329,K3As7,1.4029
mp-680343,Ta21Te13,0.0
mp-680401,U2Zn17,0.0
mp-680604,YbCd6,0.0
mp-685088,Sc12I25,0.0
mp-6916,Sm(BC)2,0.0
mp-696291,ZnH4(NO4)2,3.3332
mp-697075,Ti3Zn3N,0.0
mp-697267,TlP(HO2)2,3.9699999999999998
mp-7050,ZrTlCuSe3,0.2651
mp-7497,ThSi2,0.0
mp-752459,Gd5Y3O12,3.0149
mp-754656,LiMnO2,1.716899999999999
mp-755116,In2Pt2O7,2.049200000000001
mp-755587,V2O3F,1.4196
mp-755664,Li2(TaS2)3,0.0
mp-758930,Na5FeHO4,1.2346
mp-771185,K2Ge2O5,2.9353
mp-776341,MnP6(WO8)3,1.117299999999999
mp-815,GaNi3,0.0
mp-8226,ThNF,2.257799999999999
mp-861665,LiTmIn2,0.0
mp-861964,LiLu2Ir,0.0
mp-861965,Ho2RuRh,0.0
mp-862622,BeRu2W,0.0
mp-862661,LiEr2Ru,0.0
mp-862677,LiHoTl2,0.0
mp-862740,Sr2TlCd,0.0
mp-863648,CaHg3,0.0
mp-864619,YbMgSi,0.0
mp-864946,MnCuPd2,0.0
mp-865090,NaAcTl2,0.0
mp-865119,NaPrHg2,0.0
mp-865171,YbHg3,0.0
mp-865220,Dy2CuRu,0.0
mp-865257,DyZnRh2,0.0
mp-865278,NbAlOs2,0.0
mp-865301,TmBr3,2.9917
mp-865450,ThGa3,0.0
mp-865485,V2CrOs,0.0
mp-865580,Li2DyIn,0.0
mp-865631,LiNiO2,0.0
mp-866153,TiAlRh2,0.0
mp-866161,VRh3,0.0
mp-866168,TiInPd2,0.0
mp-867170,LiGaPt2,0.0
mp-867220,LiTm2Ir,0.0
mp-867247,TbBr3,2.8604000000000003
mp-867312,KNpCuS3,0.0
mp-867752,Na3CoO3,1.3896000000000002
mp-867907,PuSi3,0.0
mp-8695,MnPSe3,0.0
mp-893,ZrSi,0.0
mp-9230,KAlAs2O7,3.0603
mp-973809,NdBe13,0.0
mp-9774,Ba4Sb2O,0.6776
mp-980202,TmGePd,0.0
mp-980659,Tl3BiCl6,2.9012000000000002
mp-983559,CePmZn2,0.0
mp-984726,Dy(Al2Cu)4,0.0
mp-989568,Cs2NaMgF6,0.0
mp-9912,Li2CeP2,0.8348999999999991
mp-999489,NaGdSe2,1.6253000000000002
mp-999490,NaDyS2,2.3246
mvc-10106,MgV2O4,1.1571999999999991
mp-10026,ScTe,0.0
mp-1018646,YbH3Pd,0.0
mp-1018695,EuBiAu,0.0
mp-1018829,NpTe2,0.0
mp-1018886,PdO2,0.0
mp-1025183,Ho2B4C,0.0
mp-1025361,Gd2Re2Si2C,0.0
mp-1025478,TbAu3,0.0
mp-1029975,Al2(CN2)3,2.8598
mp-10301,Sr2ScIrO6,0.0
mp-1067235,BaSi,0.0
mp-1069139,SrSi3Ni,0.0
mp-1069461,HoSi3Ir,0.0
mp-1069603,LaAl3Au,0.0
mp-1070859,TbSiNi4,0.0
mp-1076927,GdPb3,0.0
mp-1077056,GdAlGe,0.0
mp-1077332,HoCdNi4,0.0
mp-1077428,NdCu4Ag,0.0
mp-1077883,In2Rh3S2,0.0
mp-1078355,ScNiSn,0.0
mp-1078460,Li2CuSn2,0.0
mp-1078740,Ho3(CoGe2)2,0.0
mp-1078899,LuNi,0.0
mp-1079332,HfCuSiAs,0.0
mp-1079839,Ba2GdMoO6,0.9384999999999991
mp-1079942,LuGa2Pd,0.0
mp-1080041,Cs2NaBiCl6,3.7845
mp-1080452,KCd4As3,0.0
mp-1080708,CeCuGe2,0.0
mp-1080850,RbReN2,0.0
mp-1095252,SrFe2Se2O,0.0
mp-1095287,ScTlP2S7,2.1363
mp-1095468,Dy3Sc2S7,0.0
mp-1095535,YGa4Ni,0.0
mp-1095660,EuIn4Cu,0.0
mp-1095675,CeAsS,0.0
mp-1097859,Mn3Ge5,0.0
mp-1101803,NdGaPd,0.0
mp-1101946,TbAsPd,0.0546
mp-1102152,DyNiP,0.0
mp-1102935,HoSiPt,0.0
mp-1103034,ScCoSi,0.0
mp-1104960,Sc3(CuSi)4,0.0
mp-1105291,Li2MnSnS4,0.1208
mp-1105563,GdB4,0.0
mp-1105693,Zr5Sb3As,0.0
mp-1105752,CaCd2Pd,0.0
mp-1105835,Y3In5,0.0
mp-1106184,MnB4,0.0
mp-11073,Ti3In3Rh2,0.0
mp-1112484,Cs2ScTlI6,2.4279
mp-1112583,Cs2KRuF6,0.0
mp-1112939,Cs2SmAgCl6,3.8839
mp-1114423,Rb2LiMoCl6,1.5319
mp-1114671,Rb2NaScCl6,3.949
mp-11281,Be2V,0.0
mp-11282,Be2W,0.0
mp-11375,EuHg,0.0
mp-11400,ScGaNi2,0.0
mp-11512,LiAl2Ir,0.0
mp-11550,Sc2Pt,0.0
mp-1170750,Ca3Si3(MoO6)2,2.6891
mp-1177487,Li47(CoO4)8,0.790999999999999
mp-11816,BaCdGe,0.0
mp-1183727,CeMgCd2,0.0
mp-1184216,ErMgAu2,0.0
mp-1184251,ErTmZn2,0.0
mp-1184290,EuMgCd2,0.0
mp-1184322,Eu2TlZn,0.0
mp-1184363,ErLuRu2,0.0
mp-1185004,LaPmIr2,0.0
mp-1185182,LaEuCd2,0.0
mp-1185392,LiGd2Al,0.0
mp-1186185,NaTl2In,0.0
mp-1186295,NdCdAg2,0.0
mp-1187170,SrAcGa2,0.0
mp-1187200,Ta2TcRu,0.0
mp-1187585,Tm2RuAu,0.0
mp-1187939,ZnSnRh2,0.0
mp-1188303,Sn4Rh,0.0
mp-1188849,LiNdGe2,0.0
mp-1189077,HoGePd2,0.0
mp-1190197,Er7(TeAu)2,0.0
mp-1190398,MnVGaCo,0.0
mp-1191145,Rb2LaNb2O7,0.0
mp-1191507,Eu4I6O,1.2084000000000001
mp-1192164,Er3(SiNi3)2,0.0
mp-1192215,CsVF4,0.0
mp-1192386,Nd3(SnPd)5,0.0
mp-1193087,Zr11Os4,0.0
mp-1193258,Yb2(Ga3Co)3,0.0
mp-1193662,Sr(ErS2)2,1.797899999999999
mp-1194312,Cs2MoO4,4.635099999999999
mp-1195654,Ba9U4(Ag5S12)2,0.4032
mp-1195820,Ho9Sb5CO4,0.0
mp-1195922,EuP7,0.39419999999999905
mp-1196535,Cs3B3Se10,1.7958
mp-1197150,Li(PrGe)4,0.04889999999999901
mp-1197617,Tb5(Ge5Rh2)2,0.0
mp-1198384,Cs3InP2,0.7103
mp-1198391,LaAgAs2,0.0
mp-1199133,Y11Sn10,0.0
mp-1199587,Yb2VO5,0.0
mp-1199678,Cs2P4Pd3O14,1.3604
mp-1199796,GdCO4,0.0
mp-1199837,Eu3(SiAs2)2,0.0159
mp-1200796,Ba3In2(PO4)4,3.7241
mp-1201065,Li15H9N8,2.3794
mp-1201491,Lu6H40N8O49,2.9884
mp-1201621,La2USe5,0.0
mp-1202008,CuAg2(NO3)4,0.176799999999999
mp-1203586,Tb5RhBr9,0.47480000000000006
mp-1203691,Fe7Sb10(Br4O9)2,2.4678
mp-1204084,Ce3Ge13Ru4,0.0
mp-1204347,Cs7Mo8AsO30,2.9731
mp-1204784,V2Pb14Cl4O17,2.3284000000000002
mp-1205673,Nd(PPt)2,0.0
mp-1205773,SmSiRu2C,0.0
mp-1205816,Tb2MgSi2,0.0
mp-1205857,LuMgIn,0.0
mp-1205865,Rb2NaPdF6,0.6025
mp-1205950,TbCdAu,0.0
mp-1205997,NaUF6,0.9535
mp-1206101,AgPbF6,0.15200000000000002
mp-1206286,PrAgGe,0.0
mp-1206329,ThSiRh,0.0
mp-1206393,CeInNi4,0.0
mp-1206996,La3AlO,0.0
mp-1207275,Dy3(In2Co)2,0.0
mp-1207408,Zr5Si3N,0.0
mp-1207598,YPd3S4,0.0
mp-1207671,YAgS2,1.7896
mp-1207882,UMnC2,0.0
mp-1207914,USnI6,0.034100000000000005
mp-1207990,TmFeB4,0.0
mp-1208361,Tb(Al5Ru)2,0.0
mp-1208464,Tb4MgCo,0.0
mp-1208556,Tb6Al43V4,0.0
mp-1208557,TaSiNi,0.0
mp-1208689,SmGePd,0.0
mp-1208907,Sm2Si5Rh3,0.0
mp-1209144,RbTb(WO4)2,3.3981
mp-1209364,Rb3MnBr5,2.6812
mp-1209642,PrAlGe2O7,3.2204
mp-1209652,Rb2(NbBr3)3,1.118399999999999
mp-1209868,Nd(TmS2)3,1.0206
mp-1209941,Nb5Si3N,0.0
mp-1209967,Nd2Co3Ge5,0.0
mp-1210112,Nd6Ni20P13,0.0
mp-1210168,Nd12(MnC3)5,0.0
mp-1210296,Pr23Mg4Rh7,0.0
mp-1210884,Li2Ce2Si3,0.0
mp-1210890,Lu(Co2Ge)2,0.0
mp-1210911,Lu2(Al3Ir)3,0.0
mp-1210999,LuGaNi2,0.0
mp-1211248,Li3Tm3(TeO6)2,3.1382
mp-1211508,La3IrI3,0.0
mp-1212180,Ho6InCo2,0.0
mp-1212386,Ho3(P3Pd10)2,0.0
mp-1212705,GdAlRh,0.0
mp-1212757,EuCoO3,0.0
mp-1213113,Er5(GeSb)2,0.0
mp-1213125,ErTl(MoO4)2,3.2546
mp-1213169,Er5(In2Pt)2,0.0
mp-1213254,CsGd(WO4)2,3.0936
mp-1214521,Cs3La(MoO4)3,3.7278000000000002
mp-1214710,BaAs2F12,3.988299999999999
mp-1214942,Ba4Ce(RuO4)3,0.0
mp-1214980,Al11(CoSi)6,0.0
mp-1215387,Zr4CN3,0.0
mp-1215908,YHoCo4,0.0
mp-1217642,Tb6Mg(GeS7)2,2.1796
mp-1217684,Tb2TeS2,1.860399999999999
mp-1218008,Ta2Cr3Si,0.0
mp-1219007,SmGdS2,0.0
mp-1219746,ScZn6,0.0
mp-1219845,Pr2ZnBi4,0.0
mp-1220720,Nb2Co3Ge,0.0
mp-1220867,NaTlO,0.975499999999999
mp-1220955,NaSr2(FeAs)6,0.0
mp-1221406,NaEuF4,0.374
mp-1221487,MoCl6,1.0791
mp-1221909,Mn2Cr3GaS8,0.0
mp-1222139,Mg4CdAg5,0.0
mp-1222204,Na3As4H5O14,3.1314
mp-1222215,Mg3Fe3(PO4)4,3.7298
mp-1223141,La6Mg(SiS7)2,1.9649
mp-1224037,La2InCuS5,0.945199999999999
mp-12241,Ca11Sb10,0.0
mp-1224434,La9In(SiS7)3,1.890299999999999
mp-1224540,Hf(GaNi4)3,0.0
mp-1224619,GdAlSi,0.0
mp-1225059,FeCl4,0.28090000000000004
mp-1225324,EuCdAu5,0.0
mp-1225396,ErZnCuP2,0.1311
mp-1226322,Cr4InAgSe8,0.18130000000000002
mp-1226464,CeZnSi,0.0
mp-1226778,Ce2Si4OsRu3,0.0
mp-12275,SrZnSb2,0.0
mp-1227866,Ce3Se2NO,0.0
mp-1228812,CsTi2(CuTe4)2,0.0
mp-1228867,As4PRh10,0.0
mp-1238251,TmSbO4,2.3144
mp-13156,HfAg,0.0
mp-13187,Mg2Tl2(MoO4)3,3.8757
mp-13254,CeMgZn2,0.0
mp-13272,BaAlGe,0.0
mp-13435,CeMgNi4,0.0
mp-1386,HoPb3,0.0
mp-14039,K2NaRhF6,2.066
mp-14213,Sr4GeP4,1.0529
mp-14234,MgB4O7,5.7433
mp-1436,EuAg2,0.0
mp-14424,Sr(AlS2)2,3.7946
mp-14629,Li2EuSiO4,0.038999999999999
mp-15521,Ba2LiSi3,0.09229999999999901
mp-1562,ThBe13,0.0
mp-15813,Mn3W3C,0.0
mp-1597,UO2,0.0
mp-16457,Tl2B4O7,3.3002000000000002
mp-16719,Al12Tc,0.0
mp-16807,Dy3(AlNi3)2,0.0
mp-16834,Zn3(AsO4)2,2.1546
mp-17141,Er3(AlNi3)2,0.0
mp-1766,TmS,0.0
mp-17839,K3Na(SeO4)2,3.5721
mp-18378,K3AlTe3,2.119799999999999
mp-18520,BaVPO6,2.4733
mp-18651,Sr3DyRhO6,2.1674
mp-18892,KBaVO4,3.9859999999999998
mp-19116,Sr2CaMoO6,2.5556
mp-19460,Ba5Nd8Mn4O21,1.8662
mp-196,Al5Co2,0.0
mp-1974,CeB4,0.0
mp-19871,PbAu2,0.0
mp-2000,CuSe2,0.0
mp-20224,GdInPd,0.0
mp-20300,EuP,0.0
mp-21505,YAgPb,0.0
mp-21520,NaCeP2O7,0.0
mp-21733,Sr(InSe2)2,1.563699999999999
mp-21922,Te3(PbO4)2,3.0002
mp-2205,LuPd,0.0
mp-22065,UGePt,0.0
mp-22222,HoSiIr,0.0
mp-22290,Mn6Si7Ni16,0.0
mp-22433,Np(SiIr)2,0.0
mp-22477,Ta2P,0.0
mp-23278,NpCl3,0.013300000000000001
mp-23480,Bi2WO6,1.9222000000000001
mp-2379,CoSi2,0.0
mp-24164,CuH2(SeO3)2,0.07210000000000001
mp-2495,PrS,0.0
mp-25977,LiFe(PO3)4,2.937999999999999
mp-2628,DyCo2,0.0
mp-27318,Sb3(BrF8)2,0.05620000000000001
mp-28685,Ba8Ni6N7,0.0
mp-28804,TcO2F3,2.5594
mp-28890,K2CoO2,0.6651
mp-2896,Pr(GeRh)2,0.0
mp-29048,Sr(BiO2)2,2.5682
mp-29051,WS9Cl4,1.2565
mp-29077,LiBiO3,0.1446
mp-29193,Nb2Se4O13,2.4198
mp-29243,Ba3SnO,0.0
mp-29300,Ga2CuCl8,0.5977
mp-29341,K4Au6S5,1.5916000000000001
mp-29371,Rb2GaSb2,1.0309
mp-29499,Re3Te8Cl3,0.8759000000000001
mp-29676,Dy3AlC,0.028999999999999002
mp-3011,Th(GeRh)2,0.0
mp-30497,TbCd2,0.0
mp-30728,HoIn,0.0
mp-30774,MgNi2Sn,0.0
mp-30838,ThPd,0.0
mp-30841,UPd3,0.0
mp-30998,Ti(NO3)4,2.83
mp-31012,K2(NbBr3)3,1.0977000000000001
mp-31107,As2Pb8O13,2.062
mp-31416,Ho3TaO7,3.451899999999999
mp-31422,TbAgSn,0.0
mp-3194,Tb2Al3Si2,0.0
mp-335,BaGa4,0.0
mp-3960,CaUO4,2.1662
mp-4007,Nd(SiNi)2,0.0
mp-4148,Ho(SiPd)2,0.0
mp-4288,TbNiGe2,0.0
mp-4308,PrAgAs2,0.0
mp-4813,NbAlNi2,0.0
mp-4864,CaMgSn,0.0
mp-494,GeMo3,0.0
mp-4973,CeSF,0.0
mp-504828,NdH12(NO5)3,3.3038
mp-505164,NbTe4Ir,0.0
mp-505429,Th(Re2Si)2,0.0
mp-505769,Eu(CuSb)2,0.0
mp-505791,ReH8(Br3N)2,0.9004000000000001
mp-505815,CsLa2CuSe4,1.160399999999999
mp-510283,CsGaSe3,1.7059000000000002
mp-510450,Fe7(AsO4)6,1.686099999999999
mp-510546,Sr2CoMoO6,0.0
mp-541508,KVPbO4,3.384
mp-541679,Cs2V(PO4)2,2.996299999999999
mp-541682,K3AlAs2,0.44459999999999905
mp-542569,AlRu,0.0
mp-542974,K3Nd(PS4)2,2.4434
mp-543051,Lu5Sb3,0.0
mp-5443,Nb2SnC,0.0
mp-547125,TbBi2ClO4,1.4425
mp-549487,Sr2Cu(IO)2,0.0
mp-550564,Co2TeCl2O3,0.0
mp-554216,K3Bi(PS4)2,2.0899
mp-555174,BaTcO3,0.0
mp-555759,Re2(HgO2)5,1.2963
mp-556107,Nd6Nb5S16,0.0
mp-556615,CaBi6(PO5)4,3.541499999999999
mp-556939,NpIO,0.0
mp-557080,SiH17S3N5,3.6722
mp-557540,Rb2AgSbS4,1.4011
mp-557640,Nb3SnS6,0.0
mp-558046,KMnF3,3.2062
mp-558049,Na2V3P2O13,1.7962
mp-558894,Ba4Ti2PtO10,2.058799999999999
mp-559510,Y2WO6,3.683799999999999
mp-559894,Sb2Te2O9,2.6128
mp-559944,YbMn4(CuO4)3,0.0
mp-560330,Ba3Fe2Cl2O5,2.4504
mp-560373,Bi3Pt3O11,0.0
mp-560458,Rb2U2O7,1.6914
mp-560562,Rb2CrF6,0.0
mp-560656,CaTeO3,2.9164
mp-561065,MgTi2(PO5)2,3.126899999999999
mp-561920,CsAgF3,0.0
mp-562366,Cs2U3(TeO7)2,1.879
mp-562965,CsCrP2O7,2.6771000000000003
mp-567644,RbCu2Br3,1.6395
mp-567807,TmZrSb,0.0
mp-568021,Er3AlC,0.08410000000000001
mp-568066,Pr2CBr,0.0
mp-568343,KPr6OsI10,0.0
mp-568512,Ba6Mg23,0.0
mp-568725,Dy(FeB)2,0.0
mp-568771,Sr3(B3Rh4)2,0.0
mp-569331,Li(Sn3Pd)2,0.0
mp-569421,Hg9P5I6,1.3411
mp-569426,SrZn2,0.0
mp-569788,LiZnGe,0.0
mp-570456,Eu(CoAs)2,0.0
mp-570775,BaAu,0.0
mp-571265,Rb2UBr6,0.0007999999999990001
mp-571448,Cs2PuCl6,0.365
mp-571479,BaYbSn3,0.0
mp-572634,Al2AgCl5O,3.4407
mp-572758,ReS2,1.4464000000000001
mp-574369,La2InCu2,0.0
mp-574472,CsCeHgSe3,0.0
mp-5808,RbNdTe2,1.3615
mp-581413,Ta2Hg2F11,1.3643
mp-583,CoAs,0.0
mp-583646,Na2Gd2B2O7,3.0607
mp-607475,Zr4In5Co2,0.0
mp-608,TiCo3,0.0
mp-608517,EuSnPt,0.0
mp-610190,Zr9(In2Co)7,0.0
mp-622491,Pb13(Br3O5)2,2.0074
mp-623827,EuRh2,0.0
mp-624187,Y5Bi3,0.0
mp-624253,Nb4Co2PdSe12,0.0
mp-626724,LaHO2,3.8407
mp-637255,Ti2Sn3,0.0
mp-643659,Ho5(Ge5Ir2)2,0.0
mp-645687,CsTi(PS4)2,1.3724
mp-647532,Eu5P3ClO12,0.6668000000000001
mp-669917,ZrRh,0.0
mp-672707,SrZn13,0.0
mp-680207,Gd2(FeB)7,0.0
mp-680293,Gd3Co29(Si2B5)2,0.0
mp-680525,La7P12Pd17,0.0
mp-684749,Zr3S4,0.0
mp-686464,Ca10P6SO24,3.7466
mp-698205,LiB(HO2)2,3.5571
mp-703348,UP3HO11,2.5220000000000002
mp-7083,LaSi,0.0
mp-7247,CeZn3Cu2,0.0
mp-7349,Ba(BRh)2,0.0
mp-740719,Ba3In2(HO)12,3.2604
mp-745175,CrH12(ClO2)3,3.1984
mp-754632,Pr(ReO4)2,0.0
mp-7550,CeNbO4,0.0
mp-755340,Tb2SeO2,2.3075
mp-755651,CsGdO2,2.4891
mp-7560,LuBO3,5.399599999999999
mp-759169,Li2CuF6,0.0
mp-7661,Li2RhF6,0.0
mp-767467,Li7Y7Zr9S32,1.052299999999999
mp-769334,EuSeO4,0.0
mp-770481,Ta9PO25,2.7058
mp-7707,Zr(SiNi)2,0.0
mp-770771,SrSc2O4,3.4364
mp-770815,Cs3YO3,2.333199999999999
mp-7726,Rb2UO4,1.9262000000000001
mp-775211,Ho2WO6,3.6111999999999993
mp-777786,Na2CoO3,0.0
mp-7898,Rb3As,0.0
mp-790,LuPt3,0.0
mp-8468,Sr(SbPd)2,0.0
mp-8514,BaNd2PdO5,2.2670999999999992
mp-86,Sm,0.0
mp-861628,Er2TlCd,0.0
mp-861961,TiZnRh2,0.0
mp-862364,Sc2OsPt,0.0
mp-862618,LiErHg2,0.0
mp-862710,Sc2CdTc,0.0
mp-862713,BeGeRu2,0.0
mp-862755,PrCd3,0.0
mp-862760,PrCdAg2,0.0
mp-862821,PaSnAu2,0.0
mp-862900,PmCu2Sn,0.0
mp-862934,Li2PmTl,0.0
mp-863671,Pm2CuRu,0.0
mp-863686,Pm2HgGe,0.0
mp-863738,ErCdPd2,0.0
mp-864613,NpAu3,0.0
mp-864635,Ag2Cl3,0.0
mp-864755,LiAcTe2,0.5982000000000001
mp-864923,MgZnPd2,0.0
mp-865110,NaMgTl2,0.0
mp-865174,HfCdRh2,0.0
mp-865182,Gd2SCl4,1.721899999999999
mp-865514,YSnAu2,0.0
mp-865520,YCdPd2,0.0
mp-865622,Li2HoIn,0.0
mp-865707,TiSnRh2,0.0
mp-865747,Y2MgGe2,0.0
mp-865757,YbGaRh2,0.0
mp-865768,Ti2MnOs,0.0
mp-865854,Yb2CuRh,0.0
mp-865964,Li2CaSn,0.0
mp-867146,ScNbRu2,0.0
mp-867176,PrCdAu2,0.0
mp-867227,Li3Pt,0.0
mp-867326,Al2RuRh,0.0
mp-867545,Ba(WO3)6,0.0
mp-867751,Ca2AgSn,0.0
mp-867805,LiCa2Ga,0.0
mp-867882,SmCdAu2,0.0
mp-867998,In15SnO24,0.0
mp-8864,Li(Co3P2)2,0.0
mp-9211,Tm2Fe2Si2C,0.0
mp-9247,Ba(CuAs)2,0.0
mp-9289,ZrSnTe,0.0
mp-9350,ScGeAu,0.0
mp-9586,NbSnS2,0.0
mp-96,S,2.7405
mp-971830,U3Sb4Rh3,0.0
mp-972049,Tb(AlC)3,0.0
mp-972467,TbNiB4,0.0
mp-973524,HoVB4,0.0
mp-9744,BaAsPd,0.0
mp-976273,Hf3Ge2,0.0
mp-978253,Ce3(SiRh)2,0.0
mp-978805,SmLuHg2,0.0
mp-978921,Tb(BIr)4,0.0
mp-989516,Cs2ICl6F,1.347999999999999
mp-989555,Tl2InGaF6,2.5494
mp-989556,Cs2NaPbF6,0.0
mp-989631,LaMoN3,2.0601
mp-1001835,LiB,0.0
mp-10109,NpS,0.0
mp-10117,Mg3(Ni10B3)2,0.0
mp-10180,Li2SbPd,0.0
mp-1018175,ThAu,0.0
mp-1018705,GdCuPb,0.0
mp-1018762,Li3CeBi2,0.0
mp-1019581,CaS3O10,4.9224
mp-10214,Y2GeRh3,0.0
mp-1025163,Gd2C(NO)2,2.735299999999999
mp-1025167,Hf(VGa2)2,0.0
mp-1025191,ScGa5Ni,0.0
mp-1025223,Hf4Al3,0.0
mp-1025290,La2Fe2Si2C,0.0
mp-1025335,Lu(TiGa2)2,0.0
mp-1025346,GaAsPd5,0.0
mp-1025355,ZrGa5Co,0.0
mp-1025373,TcF6,0.0
mp-1025522,ThTe3,1.0879
mp-1029673,KCrN2,0.0
mp-10343,Sc2BC2,0.0
mp-10398,HoNi4B,0.0
mp-10415,Yb3(GePd)4,0.0
mp-1057,Al3Ni2,0.0
mp-10626,Yb(SiRh)2,0.0
mp-1063566,MgSc2Ru,0.0
mp-10667,SrAgP,0.0
mp-1069708,BaGe3Ir,0.0
mp-10698,Ba(GeRh)2,0.0
mp-1071645,YInCu4,0.0
mp-1071862,YAlZn,0.0
mp-1077116,NbP2,0.0
mp-1077979,InPd5Se,0.0
mp-1078326,Ca2GePd2,0.0
mp-1078369,Gd2Al4CoGe2,0.0
mp-1078378,YbInPt,0.0
mp-1078542,GdZnAsO,0.6273000000000001
mp-1078741,Ba2CuOsO6,0.0
mp-1079203,NdGe2Pd,0.0
mp-1079552,TbGa2Ni,0.0
mp-1079597,ScGeRh,0.0
mp-1095029,Dy(BIr)2,0.0
mp-1095513,SrCdAu,0.0
mp-1102067,PuSn2,0.0
mp-1102196,ErGaIr,0.0
mp-1102314,HfFeSi,0.0
mp-1102601,SmGaPd,0.0
mp-1102843,FeMoP,0.0
mp-1102948,GdNi4B,0.0
mp-1103079,SmGaNi,0.0
mp-1103425,ErCo3Si2,0.0
mp-1103757,Cu5Sn2Se7,0.0
mp-1103970,FeSO4F,2.4684
mp-1104137,Tb(NbSn)6,0.0
mp-1104457,Eu3Au2,0.0
mp-1104923,Eu(Al2Cu)4,0.0
mp-1105092,Eu3P4,0.0
mp-1105574,Ce(LuS2)3,0.0
mp-1105598,Y3Co,0.0
mp-1105696,Pr(ErS2)3,1.014399999999999
mp-1111621,K2NaScCl6,3.9442
mp-1112664,Cs2NaAsBr6,2.5774
mp-1113425,Cs2YAgF6,3.5148
mp-1113542,Cs2LuAgCl6,3.7426
mp-1113737,Rb2LuAgCl6,3.7147
mp-11201,Sc6FeSb2,0.0
mp-11242,DyPbAu,0.0
mp-11444,YGa2Ni,0.0
mp-11449,HfMn2,0.0
mp-11452,HfOs,0.0
mp-11726,LaSi4Ni9,0.0
mp-1178924,Tm(BIr)4,0.0
mp-1179866,Pr3CBr5,0.7395
mp-1181041,HoWC2,0.0
mp-1183038,ZrZnIr2,0.0
mp-1183546,CaTbRh2,0.0
mp-1184021,Cu3Ge,0.0
mp-1184364,Fe3Rh,0.0
mp-1184470,Gd2ZnIn,0.0
mp-1184479,Gd3In,0.0
mp-1185094,LaPmTl2,0.0
mp-1185265,Li3Sn,0.0
mp-1185335,LiEu2Tl,0.0
mp-1186205,Nb2MoOs,0.0
mp-1186500,Pm3Au,0.0
mp-1186607,PmLuTl2,0.0
mp-1187198,SrMg2,0.0
mp-1187422,Ti2CoOs,0.0
mp-1188606,La5Pb3S,0.0
mp-1188990,Pr(P3Os)4,0.0
mp-1189265,NaCl3,2.7103
mp-1189565,Tb3Os,0.0
mp-1189670,GdSiPt2,0.0
mp-1190768,LiSmSn,0.0
mp-1191019,Er2Mn12P7,0.0
mp-1191331,Ti2Co,0.0
mp-1191699,Gd3MnGaS7,0.3531
mp-1191843,Yb2Mn12P7,0.0
mp-1192004,La6Zn4Pd13,0.0
mp-1192462,DyMoBrO4,2.0354
mp-1192662,SrCu9Sn4,0.0
mp-1192751,Sr(LuS2)2,1.842
mp-1193305,Ta4Co2N,0.0
mp-1193533,Yb6Al7Cu16,0.0
mp-1193686,Nb4FeS8,0.0
mp-1193693,Er6Al7Cu16,0.0
mp-1194390,Sc3Si3Pt,0.0
mp-1194641,Na3U6TiF30,0.09150000000000001
mp-1194950,Na3U6AlF30,0.250999999999999
mp-1195000,CsZn2B3O7,3.5119
mp-1195299,K3Np(HO3)2,1.5642
mp-1195622,Rb2Th(AsO4)2,3.9188
mp-1196005,Nd3Si11Pt23,0.0
mp-1196173,Na3NbS4,2.236399999999999
mp-1196865,Cs8In2O7,1.8569
mp-1197179,Er11(In3Ge2)2,0.0
mp-1197529,SrAu2(SO4)4,1.6782
mp-1199170,Sr2V2Se3O13,2.6388
mp-1199243,Cs6Ho21S34Cl,1.9586000000000001
mp-1199296,Gd5P12Ru19,0.0
mp-1199401,Nd(NO3)3,3.1501
mp-1199965,Ge3Rh2S3,0.5777999999999991
mp-1200206,Rb2U6Pd4S17,0.0
mp-1201217,CsVSeO5,3.1161
mp-1201494,Rb2Th7Se15,1.3908
mp-1201536,K12Sn4Au21,0.0
mp-1202074,Tm11Cd45,0.0
mp-1202368,Nd5Zr3(Ni4As3)4,0.0
mp-1202519,Ba3(AlAs2)2,1.07
mp-1202542,Lu3Ga5,0.0
mp-1202556,Tb(NO3)3,3.299299999999999
mp-1202778,K3Cd16,0.0
mp-1203201,Er3Ge13Os4,0.0
mp-1203892,Cs3Ti3Te11,0.10610000000000001
mp-1205021,Pr5Ir3,0.0
mp-1205399,BaZn(SeO3)2,3.7883
mp-1205559,YbInBr3,2.9827
mp-1205657,Gd2MgNi2,0.0
mp-1205812,Sm2ScSi2,0.0
mp-1206239,Hf6CoSb2,0.0
mp-1206421,TbCuSn,0.0
mp-1206453,Sm2CdCu2,0.0
mp-1206830,Cs(CoAs)2,0.0
mp-1207380,ZrIn,0.0
mp-1207641,Yb6Ni20P13,0.0
mp-1207678,U3Bi4Rh3,0.0
mp-1207857,Y6Ta4Al43,0.006
mp-1207954,U2Mn3Si,0.0
mp-1208007,Tm(Al5Fe)2,0.0
mp-1208226,Th2Al4Si2Au3,0.0
mp-1208343,Ta6Be15Ni8,0.0
mp-1208445,Tb5CuPb3,0.0
mp-1208926,Sm2(Ga3Ir)3,0.0
mp-1208984,Sc2BeB2Ir5,0.0
mp-1209358,Rb3Ta2AsS11,1.8938000000000001
mp-1209432,Pr3AsBr3,0.0
mp-1209493,Rb8Hf(MoO4)6,3.9984
mp-1209876,Nd(Al5Ru)2,0.0
mp-1210173,Pr3CoBr3,0.0
mp-1211108,LiGd(SO4)2,2.6311
mp-1211182,LiCr4InS8,0.36920000000000003
mp-1211472,La4Ge7,0.0
mp-1211612,KDy3F10,6.9834
mp-1211686,KDy(MoO4)2,3.5962
mp-1211772,Li3Dy(NO3)6,3.1081
mp-1211864,La4CdNi,0.0
mp-1212394,K2CrF5,3.8102
mp-1212840,Er4OsBr4,0.7187999999999991
mp-1212862,GdIn2Cl5,1.3178
mp-1212943,Er4MgRh,0.0
mp-1212966,Er2Si4CN6,3.2753
mp-1213053,DyZnSn,0.0
mp-1213187,Dy2Mo4O15,3.3171
mp-1213283,Er7Co6Sn23,0.0
mp-1213401,CsGaO2,2.9938000000000002
mp-1213720,Cs2Pr10Os2I17,0.0
mp-1214115,Ca2NbCrO6,2.7019
mp-1216639,U2(AlSi)3,0.0
mp-1216640,TiZnGa2,0.0
mp-1216666,TiNbCr4,0.0
mp-1216828,U2CN,0.0
mp-1217052,Ti6P2O,0.0
mp-1217965,TaB2Mo,0.0
mp-1218056,Ta4AgS8,0.0
mp-1218917,Sr(SiPd)6,0.0
mp-1219574,Rb5Sb4,0.0
mp-1220301,NbTlWO6,2.7937000000000003
mp-1220460,Nb4CuSe8,0.0
mp-1220937,NaU2F9,0.0
mp-1221207,Na4Ca2SiP4,0.9931999999999991
mp-1223108,LiU4As3O20,1.8901
mp-1223289,La6Cr(GeS7)2,0.0