material_id,pretty_formula,band_gap
mp-864744,HoMgRh2,0.0
mp-865027,Mn3Ge,0.0
mp-865252,TmSnRh2,0.0
mp-865377,Th3Au4,0.0
mp-865464,PmSi3,0.0
mp-865521,LuI3,2.1816
mp-865717,Ti2ReIr,0.0
mp-865848,LuInAg2,0.0
mp-865905,YbPmRh2,0.0
mp-865948,Ti2ReRh,0.0
mp-865978,YbPrHg2,0.0
mp-866094,HfZnCu2,0.0
mp-866204,Pm2SiHg,0.0
mp-866208,Yb4MgPd,0.0
mp-866492,Cs9AlO4,0.0
mp-866650,La2Si4CN6,2.336
mp-866666,La2Mg(NiH4)2,0.686399999999999
mp-867148,LiHfRh2,0.0
mp-867159,SmDyMg2,0.0
mp-867214,Er2IrRu,0.0
mp-867270,Be2CoPt,0.0
mp-867823,RbTaGeS5,0.9326000000000001
mp-867870,SmAl3,0.0
mp-867899,Sm2IrRh,0.0
mp-9078,BaPIr,0.0
mp-94,Cd,0.0
mp-972384,V2Se2O11,2.1812
mp-973270,Ho2RuAu,0.0
mp-975616,LaEuZn2,0.0
mp-976892,Na(TeMo)3,0.10269999999999901
mp-977395,YbFeB4,0.0
mp-977554,MgScAg2,0.0
mp-981207,Yb3In3Ge2Au,0.0
mp-981396,Y(BIr)4,0.0
mp-982777,TmB4Os,0.0
mp-984724,Ba2TlZn,0.0
mp-985700,ErCrB4,0.23459999999999903
mp-989525,Cs2RbPbF6,0.0
mp-1018276,CeGa,0.0
mp-1018826,NdGeAu,0.0
mp-1019361,ThSbTe,0.0
mp-1025116,TmCu4Ag,0.0
mp-1025159,Te4Rh3,0.0
mp-1025293,InAsPd5,0.0
mp-1025311,CdAsPt5,0.0
mp-1029251,LiRuN,0.0
mp-1067,LiAl,0.0
mp-1068398,Eu(GeAu)2,0.0
mp-1068807,EuSi3Rh,0.0
mp-1069604,CaSi3Pt,0.0
mp-1070267,Ba(ZnSi)2,0.0
mp-1072580,CeSiPt,0.0
mp-1077722,ScZnPt,0.0
mp-1077785,HoAlGe,0.0
mp-1077929,La2CuO4,0.0
mp-1078190,Er2Cr2C3,0.0
mp-1078335,Pr2BiN,0.0
mp-1078767,HfAlNi,0.0
mp-1078814,Ce2C2Cl,0.0
mp-1079270,Tm2NiSn6,0.0
mp-1079540,La(SbPd)2,0.0
mp-10797,CaSiNi2,0.0
mp-1079819,LuAlNi,0.0
mp-1079838,Dy2CdGe2,0.0
mp-1079958,LuSnIr,0.0
mp-1079974,DySnRh,0.0
mp-1080443,YCu,0.0
mp-1080800,Th(CoAs)2,0.0
mp-1080803,USnIr,0.0
mp-10896,Y(MnAl2)4,0.0
mp-1091396,Pr(AlAu)2,0.0
mp-1092281,Ti2TlC,0.0
mp-1094027,TmTe,0.0
mp-1095053,ThSnRh,0.0
mp-1095573,NbCoSi,0.0
mp-10961,La5Si3,0.0
mp-1101724,Nb10Pb14O39,1.7871000000000001
mp-1102041,TaNiP,0.0
mp-1102455,DyNiGe,0.0
mp-1102671,EuIn4Au,0.0
mp-1102792,Gd(Ge2Rh3)2,0.0
mp-1103032,HoAlPt,0.0
mp-1103738,Eu3S4,0.0
mp-1103916,TmZn12,0.0
mp-1104158,Pr3Rh2,0.0
mp-1104435,La3Pd4,0.0
mp-1104854,Ni3(PbS)2,0.0
mp-1105136,YTl(PSe3)2,1.507099999999999
mp-1105139,Zr3Sb,0.0
mp-1105198,Rb2PaF7,3.9772
mp-1105621,Pr2Co17,0.0
mp-1106231,SmZn3,0.0
mp-1106241,BaTbMn2O5,0.150199999999999
mp-1106254,La(LuS2)3,1.0627
mp-1106300,Nd3Ru,0.0
mp-1106357,Tb5Sn3,0.0
mp-11104,HoInRh,0.0
mp-1112675,Cs2LiPrBr6,3.9651
mp-1113339,Rb2TlAgCl6,0.011299999999999
mp-1114094,Rb2InAgF6,1.8556
mp-1114507,RbTlF3,2.104899999999999
mp-11249,LuAu,0.0
mp-11392,TmGa2Pd,0.0
mp-11482,MoIr3,0.0
mp-1152,TiRh3,0.0
mp-1161,LaSe,0.0
mp-11814,Rb2Au3,0.0
mp-11822,Ca3GeN,0.0
mp-1183214,Ag3Au,0.0
mp-1184399,Gd2MgRu,0.0
mp-1185299,EuMg149,0.023000000000000003
mp-1185376,LiLaTl2,0.0
mp-1185557,Mg149Bi,0.2936
mp-1185784,Mg3Hg,0.0
mp-1185961,MgScZn2,0.0
mp-1186556,PmDyTl2,0.0
mp-1186748,PmMg149,0.197
mp-1186751,PrHoTl2,0.0
mp-1186878,Ta2Mo2O11,2.6310000000000002
mp-1186961,Sc2TlHg,0.0
mp-1187211,Ta2RuW,0.0
mp-1187695,V3Cr,0.0
mp-1187909,Yb3P,0.0
mp-1188420,HoAl,0.0
mp-1189769,DyGaPd2,0.0
mp-1190040,Ce(Ge3Pt)4,0.0
mp-1190325,Ag2P2PdO7,1.2721999999999989
mp-1190388,Na2Ga2GeS6,2.6215
mp-1190820,Ba2FeGe2O7,0.0
mp-1190822,BaSi9Rh2,0.1444
mp-1190907,Rb6HgSe4,1.3393
mp-1190911,Rb3V5O14,2.2826
mp-1191147,Sm2Fe12P7,0.0
mp-1191401,HfFe2,0.0
mp-1191453,Sm3AlNi8,0.0
mp-1191528,Dy2Si3Rh,0.0
mp-1191771,LuB4Ru,0.0
mp-1192188,KHo(WO4)2,3.371099999999999
mp-1192600,Tb3Te3N,1.0952
mp-1193169,Ba(TmSe2)2,1.3846
mp-1193745,CeAsO4F,1.495499999999999
mp-1193940,SrCo2(AsO4)2,2.5025
mp-1194068,Ag5HgSbO6,0.0
mp-1194575,Tb3ZnAu5,0.0
mp-1195159,Tb2SeOF2,2.8244
mp-1195188,Ca3(Si4P7)2,0.9004000000000001
mp-1195261,Ag3Sb4F24,0.0
mp-1195399,HgSb2Xe5F22,2.2327
mp-1195689,Y5(Ge5Os2)2,0.0
mp-1197667,Ce2Re3Si5,0.0
mp-1197742,In2Te5,0.8515
mp-1197835,HfMnGa2,0.0
mp-1197897,Gd3Ge13Ir4,0.0
mp-1198710,Pr2Re3Si5,0.0
mp-1199771,Ce2Nb2S7O30,0.6364000000000001
mp-1199943,Tb(BRu)4,0.0
mp-1200253,CsMoN3O11,2.7843
mp-1200258,HgS2O7,2.602099999999999
mp-12005,Tm2Al3Si2,0.0
mp-1200593,KH3(SeO4)2,3.4184
mp-1200745,RbNd(MoO4)2,3.6999
mp-1201266,Tb5Ir3,0.0
mp-1201606,BP(PbO2)4,2.780099999999999
mp-1201769,Sm6InFe13,0.0
mp-1201920,CsSe4,0.9736
mp-1202353,K2PS3,2.9173
mp-1202367,Nd11Sn10,0.0
mp-1202818,LiZr2(AsO4)3,3.8804
mp-1203152,Lu20Os5I24,0.036000000000000004
mp-1203781,Th(BRu)4,0.0
mp-1203980,Lu11(Ni10C)6,0.0
mp-1204079,Gd(Ni2B)6,0.0
mp-1204813,DyCo5P3,0.0
mp-1205579,DySiOs2C,0.0
mp-1205589,Pr2MgSi2,0.0
mp-1205757,Rb2MoBr6,0.0
mp-1205878,LiLuGe,0.0
mp-1205975,ErMgAu,0.0
mp-1206268,ScIn2,0.0
mp-1206478,Eu(MgP)2,0.0
mp-1206564,SmRe2SiC,0.0
mp-1206585,Ce2InAu2,0.0
mp-1206612,Eu(CoGe)2,0.0
mp-1206768,Rb2NaVCl6,0.0
mp-1206883,K2CoF6,1.1759
mp-1207197,Tb2CI,0.0
mp-1207694,TmSbIr,0.0
mp-1208030,U3Ni3Bi4,0.043300000000000005
mp-1208192,Tm12In2Fe3,0.0
mp-1208738,Tb12Ni6Pb,0.0
mp-1208924,Ti4S24Cl6O,1.0792
mp-1208939,Sm4CdNi,0.098399999999999
mp-1209000,Sc2CuB2Ir5,0.0
mp-1209016,Sm3NiGe2,0.0
mp-1209056,Sc2NiB2Ir5,0.0
mp-1210469,Rb2Ba(Ge4O9)2,2.9384
mp-1210818,LuF3,7.6899000000000015
mp-1210969,Lu6Al43V4,0.008799999999999001
mp-1210986,Li14Be6(BO3)9,0.0
mp-1211003,Lu4MgNi,0.0158
mp-1211197,Nd12InPt7,0.0
mp-1211269,La(Al5Ru)2,0.0
mp-1212213,Ho5BiPt2,0.0
mp-1212243,HoTl(MoO4)2,3.2923
mp-1212360,Ho6Ti4Al43,0.0
mp-1212377,Ho6Ta4Al43,0.013200000000000002
mp-1212476,Li3Gd(NO3)6,2.6228
mp-1212640,GdInO3,1.8356999999999992
mp-1212680,Ga5Ir3,0.0
mp-1212792,Dy4Ga12Pt,0.0
mp-1212818,Eu5P3O13,0.0
mp-1212988,DyAg(WO4)2,3.1512000000000002
mp-1213167,Dy2OsC2,0.0
mp-1213205,Dy11(Mn2C3)6,0.0
mp-1213889,Ce3Cu4(P2O)2,0.0
mp-1214351,Cs3CeCl6,0.46039999999999903
mp-1214536,Ba3HoRu2O9,0.0
mp-1214934,AgRhF6,0.0
mp-1215613,Yb7MgPt4,0.0
mp-1216422,Y4Fe28BC,0.0
mp-1216676,TiP2W,0.0
mp-1216758,U2(PdRh)3,0.0
mp-1217294,Th2CuSi3,0.0
mp-1217740,Th14Cu51,0.0
mp-1218769,Sr2MnRuO6,0.0
mp-1218953,SnGe4Te4Se,0.623499999999999
mp-1219170,Sm2P3Pt4,0.0
mp-1220152,NdGaSi,0.0
mp-1220590,Nb3SnH,0.0
mp-1223899,HoAlNi4,0.0
mp-1223925,HoFeRu,0.0
mp-12245,Rb3TiF7,3.0388
mp-1224505,K6InP3,0.7451000000000001
mp-1224518,KGd(NbCl3)6,0.46280000000000004
mp-1224600,K10Mn4Sn4S17,0.021300000000000003
mp-1224709,K(Nb2Cl5)4,0.0
mp-1224733,Gd2ZnAg,0.0
mp-1224776,Gd3Sc2S7,0.0
mp-1225979,CsCoCuF6,0.0
mp-1226195,Cs3H(SeO4)2,3.479899999999999
mp-1226818,Ce2ZnBi4,0.0
mp-1226980,Ce2Ga7Pd,0.0
mp-1227012,Ce2MgCo9,0.0
mp-1227072,CaGa3Pt,0.0
mp-1227331,Ce4Ni3Bi8,0.0
mp-1228015,AlSiMo,0.0
mp-1228392,Ba2CePbO6,2.3311
mp-1228721,Al4InAgSe8,0.684099999999999
mp-1229324,Ba16Zn9Ge80Pd3,0.0
mp-12465,Co(TePd)2,0.0
mp-12494,CsPrCdTe3,1.5231
mp-12510,LaSnPd,0.0
mp-12565,MnAu4,0.0
mp-12729,Ba2TmRuO6,0.0806
mp-1279062,Fe(BO2)2,4.0966
mp-1295,Yb4Sb3,0.0
mp-1311506,Na2FeO3,0.5906
mp-13223,EuMg2Cu9,0.0
mp-13595,Rb2UF6,0.0415
mp-13920,Ba(ZnSn)2,0.0
mp-1422,GdPt2,0.0
mp-14322,Ba3Tm4O9,3.3996
mp-14542,Y3FeB7,0.0
mp-15046,Sb2(PSe3)3,1.4599
mp-15178,Lu4C7,0.0
mp-15282,RbMn4(AsO4)3,1.9685000000000001
mp-15323,Nd(BOs)4,0.0
mp-15502,Ba4TiP4,1.0679
mp-15897,La4Si2S3O7,2.4946
mp-15994,Hg(PO3)2,2.5808
mp-16318,RbTiS2,0.0
mp-16486,Ce(Al2Fe)4,0.0
mp-16493,YAl2Co,0.0
mp-16750,HoCuPb,0.0
mp-16864,RbV3O8,2.1
mp-1688,ErAs,0.0
mp-16907,RbNpN3O11,0.09719999999999901
mp-16965,LaTm(Ge2Ir)2,0.0
mp-17149,Sr3ErRhO6,2.212399999999999
mp-17164,NaNbGeO5,3.0795999999999992
mp-17435,Zr4Fe4Si7,0.0
mp-17593,Ta5Ge3,0.0
mp-1767,Tm2O3,3.9907999999999992
mp-17676,Sr2SnS3F2,2.0903
mp-17874,Sm2Cu(SeO3)4,0.540899999999999
mp-1793,Zr3Te,0.0
mp-18010,Ta2Pd3Se8,0.5784
mp-18049,Ge5P6O25,3.5841000000000003
mp-18071,Ce3SiAgSe7,0.0
mp-18104,Na2Si2S5,3.5318
mp-18192,Sr3Sn5,0.0
mp-1841,SiIr3,0.0
mp-1845,CaBe13,0.0
mp-18706,Y5(FeTe)2,0.0
mp-18897,NaVTeO5,3.0578
mp-1900,CaAs3,0.0
mp-19266,Sr2FeWO6,1.9746000000000001
mp-19272,TbCrO4,0.29910000000000003
mp-19511,Li5FeO4,3.0546
mp-19521,Al2(MoO4)3,3.7586
mp-19756,GdB2Rh2C,0.0
mp-19767,DyCoSi,0.0
mp-20090,PrCoO3,1.1342
mp-20194,CeO2,1.879699999999999
mp-20424,MgCo3C,0.0
mp-20553,GdMnSi,0.0
mp-20578,Eu(BIr)4,0.0
mp-20596,U(SiNi)2,0.0
mp-2065,MnS,0.0
mp-20775,CeDyS3,0.0
mp-21066,TaMnP,0.0
mp-213,CaPd,0.0
mp-21373,EuCuP,0.0
mp-21625,Y2(Ga3Co)3,0.0
mp-2167,DyAg,0.0
mp-21765,Pd17Se15,0.0
mp-21875,Y4GaCo4,0.0
mp-22249,CeSbRh,0.011699999999999001
mp-22275,YSnPt,0.0
mp-22293,PrZnSn,0.0
mp-22480,GdScSi,0.0
mp-22634,K4SrU3O12,2.096599999999999
mp-22769,TiCoGe,0.0
mp-23017,CsCu2Br3,1.4959
mp-23108,Cs2NaUCl6,0.5018
mp-23169,Pr2Br5,0.28749999999999903
mp-23560,Ge3(BiO3)4,3.5617
mp-23671,LaNi5H7,0.0
mp-25576,Li(MoO2)2,1.4749
mp-25773,Mn8Cl3O10,0.45759999999999906
mp-2661,SrSi,0.0
mp-27241,K2SbCl5,3.2523
mp-27525,K3TlF6,3.8102
mp-27532,Si(PbSe2)2,1.817499999999999
mp-27604,MgMo2O7,3.674299999999999
mp-27632,K2TcCl6,1.202899999999999
mp-27763,UIN,0.0
mp-27975,NdBr3,2.9221
mp-28387,PAuCl8,1.2867
mp-28510,Li3BiO3,2.4933
mp-28537,As2PbO4,3.0924
mp-28930,KC8,0.0
mp-29030,ThTl3F7,3.2154
mp-29239,LuB2Ru,0.0
mp-2924,Ho(SiNi)2,0.0
mp-29387,K5SnBi3,0.014499999999999002
mp-29907,Te4Pd9,0.0
mp-29964,La3(TaN3)2,0.0
mp-30018,Rb2ZnI4,3.1121
mp-30354,ScAg4,0.0
mp-30557,YGa2Co3,0.0
mp-30875,Ti2Sn,0.045200000000001
mp-30892,Ba4Bi3,0.0
mp-31072,Sc6Te2Rh,0.0
mp-31481,Ca3Ga3Ir2,0.0
mp-3236,Pr2SO2,3.0053
mp-33090,V2N,0.0
mp-33436,Tl(WO3)6,0.0
mp-36165,Na10Zn4O9,1.4885000000000002
mp-4066,KGaO2,3.0515
mp-4092,SrSeO4,3.5358
mp-4228,Nd(CoSi)2,0.0
mp-4243,CaIrO3,0.0
mp-4311,HoAgSn,0.0
mp-448,CoN,0.0
mp-504781,NpI3,0.0
mp-505138,K2PdSe10,1.0629
mp-5054,Pr(CoP)2,0.0
mp-505564,Bi2Se4Cl7,1.0811
mp-505784,CsAl(MoO4)2,3.8794
mp-510073,RbLi(H2N)2,2.3503
mp-510579,PrNiSnH,0.0
mp-510697,Zn5B3Rh7,0.0
mp-540856,Tm8Ga3Co,0.0634
mp-541474,Pt(OF3)2,0.017999999999999003
mp-541880,Rb2Ge2Se5,1.5406
mp-542239,Cs5Hg19,0.0
mp-542565,Nd3Sb5Pd6,0.0
mp-553082,PrBi2ClO4,1.268
mp-554684,K2SrV3O9,2.1927
mp-556177,Cs2Cu2Si8O19,0.6959000000000001
mp-556528,In4GeS4,1.0698
mp-556712,Ga2BiS4,2.682699999999999
mp-556834,RuCl(OF3)2,0.5673
mp-557025,K2SeO4,3.6435
mp-557726,Gd2Au5F21,1.619
mp-558198,Na2Cd(SO4)2,3.8346
mp-558651,Ba2Mn(AsO4)2,2.5236
mp-559057,NbTl(BO3)2,3.4505
mp-559316,CsV(SO4)2,0.0
mp-559965,Sr5As3ClO12,3.8285
mp-560501,Tb3CuSiS7,1.738
mp-560692,K4Nb6O17,2.6564
mp-561396,Li3CrF6,3.9646
mp-567341,PrCoC2,0.0
mp-567763,Pr(C2N3)3,3.6710000000000003
mp-567874,Pr(AlBr4)3,3.3654
mp-567908,Lu4B3C4,0.0
mp-567929,Al13Os4,0.0
mp-568105,Ba2Zr6BCl17,1.138399999999999
mp-568365,Li6Br3N,2.2583
mp-568405,K2NbCl6,0.0
mp-568468,Yb5(AlSb3)2,0.0
mp-568727,ErRh3C,0.0
mp-570547,Sc6Ni16Ge7,0.0
mp-570623,Pr4Te3N2,0.758899999999999
mp-571275,Cs2UHg2Se5,0.0
mp-572430,BaCr2O7,2.6252
mp-572715,Cs4U2V2O13,2.0504
mp-5760,NdSF,1.235999999999999
mp-580329,Pu3Sn,0.0
mp-5901,CeMnSi2,0.0
mp-5977,Nd2Zr2O7,3.442999999999999
mp-603912,Nd2MoC2,0.0
mp-605663,AlPd5,0.0
mp-607990,Hf2Co3Si4,0.0
mp-6090,Na2Cu(CO3)2,0.5189
mp-610645,Ce(NiAs)2,0.0
mp-623006,UGa5Ir,0.0
mp-639811,KIrO3,0.0
mp-641564,U4Ga12Pd,0.0
mp-641845,Yb7In(CoGe3)4,0.0
mp-642190,Ni3(BiS)2,0.0
mp-644136,Li2H2Pt,0.0
mp-656144,BaEuFe2O5,0.0
mp-6646,HoNi2B2C,0.0
mp-667336,Cs4Zr3Te16,1.0936
mp-672237,PbO,1.5392000000000001
mp-676083,Ce2USe4,0.0
mp-679999,Re3(SeCl)7,1.5043
mp-680722,As2Pb14Cl4O17,1.9593
mp-686076,Ga6Te10Pb,1.0051
mp-6969,Sc(CuSi)2,0.0
mp-7126,TiSnSb,0.0
mp-721084,H7IN2,3.6958
mp-737,Hf5Ge4,0.0
mp-740696,TeH18(Br3O4)2,1.9131
mp-754,Te2Rh,0.0
mp-754760,Eu(ReO4)2,0.49420000000000003
mp-755536,RbFeO2,1.6622
mp-766341,NaSb5O13,0.7792000000000001
mp-768830,Rb5FeO4,1.5483
mp-769393,DySeO3,1.796199999999999
mp-770463,Cs3GaO3,2.5343
mp-775437,V3P6WO24,1.164
mp-8033,PuF3,0.002499999999999
mp-8182,As3Rh,0.0
mp-8435,Ta2PdS6,0.0
mp-861597,Pr2Ni12As7,0.0
mp-861971,PaGaCu2,0.0
mp-861985,Er2IrRh,0.0
mp-862312,LiBePd2,0.0
mp-862318,LiAl2Ni,0.0
mp-862635,ScSbRh2,0.0
mp-862699,ScTaOs2,0.0
mp-862945,NaPmTe2,0.051199999999999
mp-862989,Pm2AgPt,0.0
mp-862993,ErMgSn,0.0
mp-863667,Er2TlAg,0.0
mp-863676,Pm2CuSn,0.0
mp-864598,LiMg2Ag,0.0
mp-864654,Zn2NiRh,0.0
mp-864786,Yb2PdPt,0.0
mp-864990,Mn2AlW,0.0
mp-864995,DyAl3,0.0
mp-865017,Dy2ZnRu,0.0
mp-865076,NaCd2Pt,0.0
mp-865316,Gd2MgTl,0.0
mp-865855,Ac2SiPd,0.0
mp-865858,PaAu3,0.0
mp-865925,LiZrIr2,0.0
mp-865989,Al2IrRu,0.0
mp-866047,NaEuTl2,0.0
mp-866128,NaTmTl2,0.0
mp-866131,Lu2TlAg,0.0
mp-866173,Y2RuRh,0.0
mp-866188,TlCdRh2,0.0
mp-866206,Yb2AgRh,0.0
mp-866223,CaYHg2,0.0
mp-866656,GdFeB4,0.0
mp-867127,ScCdAg2,0.0
mp-867188,RbNpCuS3,0.0
mp-867474,Li2EuSn,0.0
mp-867542,Ba8(Bi2O7)3,0.0
mp-867860,SmZnAu2,0.0
mp-873,VPd3,0.0
mp-9084,CsGdS2,1.7661000000000002
mp-9353,Dy5Ni2Sb,0.0
mp-9549,ScFeGe,0.0
mp-9637,K3NpO2F5,0.2862
mp-972810,SiTc2W,0.0
mp-975140,RbZn4P3,0.459099999999999
mp-975640,Pr3(CuSn)4,0.0
mp-976064,Ho6CoTe2,0.0
mp-977385,NpH3,0.0
mp-977537,ZrCdRh2,0.0
mp-979423,YGa3,0.0
mp-980384,YbDyPd2,0.0
mp-9827,RbHg2,0.0
mp-983063,PmSmHg2,0.0
mp-983126,HoTmZn2,0.0
mp-998786,TlPdF3,0.0
mvc-4467,Ca3Ge3(MoO6)2,1.8503
mp-1007755,HfAu,0.0
mp-101,Ir,0.0
mp-1025210,Nd2Re2Si2C,0.0
mp-1025436,YU2S3O2,0.0
mp-1025468,CeAu,0.0
mp-1044,UIr3,0.0
mp-10582,Ca5P12Rh19,0.0
mp-10584,Ba2LiOsO6,0.0
mp-1061,PrPt2,0.0
mp-1070247,BaGe3Rh,0.0
mp-1070844,ThPt2,0.0
mp-1077404,YbSi2,0.0
mp-1077789,ThSiNi,0.0
mp-1078100,CdPPd5,0.0
mp-1078280,Ca2GaPd2,0.0
mp-1078394,Ba2LuBiO6,1.4518
mp-1078969,Ba2NbVO6,0.0
mp-1079155,Hf6Al2Pt,0.0
mp-1079206,PrInPd,0.0
mp-1079478,PrAgSb2,0.0
mp-1079725,Er6CoTe2,0.0
mp-1079764,La(AlPd)2,0.0
mp-1080049,Sr(ZnSn)2,0.0
mp-10847,NiSbSe,0.0
mp-10853,Pr(BC)2,0.0
mp-10901,Al3Pd2,0.0
mp-1094101,Nd3PbN,0.0
mp-1094116,MgAl2,0.0
mp-1095035,Eu2InPt2,0.0
mp-1095160,Eu2InPd2,0.0
mp-1095254,EuMoO4,0.0
mp-1095435,Ho2(NiB2)3,0.0
mp-1095577,Tm4B3C4,0.0
mp-10994,TmCuAs2,0.0
mp-1101314,Tb3TaO7,3.4421
mp-1101870,TiFeP,0.0
mp-1101995,NbNiGe,0.0
mp-1102112,V3Ag2TeS6,0.0
mp-1102475,Ce2NiGe3,0.0
mp-1103105,HoGePt,0.0
mp-11033,TbAl7Au3,0.0
mp-1103985,Nd3Pt2,0.0
mp-1104851,GdGa3Ru,0.0
mp-1105151,Co3Se4(ClO5)2,2.6444
mp-1105639,U2Fe3Si5,0.0
mp-1105695,Er3Sb4Au3,0.6246
mp-1106057,Dy(Co2B)6,0.0
mp-1112166,Cs2RbRuF6,0.0
mp-1112238,K2CuBiCl6,1.1971
mp-11236,MgZnAg2,0.0
mp-11411,ScGa,0.0
mp-1147,Ti3O5,0.0
mp-11558,Sc5Re24,0.0
mp-1183072,Ac2TlCd,0.0
mp-1183541,Cd2RhAu,0.0
mp-1184246,ErThRu2,0.0
mp-1184378,EuIn3,0.0
mp-1186457,Pm2CoRu,0.0
mp-1186585,Pm2AlIn,0.0
mp-1186772,Ta2CrRe,0.0
mp-1188175,Gd2Se3,0.617799999999999
mp-1188355,Zr5Sb3P,0.0
mp-1188509,Pr(FeSb3)4,0.0
mp-1188851,Ho5BiAu2,0.0
mp-1188981,Tm3Sb4Au3,0.5948
mp-1189,PrAl2,0.0
mp-1189051,Ho3GaS6,2.1725
mp-1189199,Lu3Sb4Au3,0.6132000000000001
mp-1189242,Dy3GaS6,2.1403
mp-1189323,Zr5Sb3S,0.0
mp-1189689,Sc4Si6Ir7,0.0
mp-1189925,HoB2Os,0.0
mp-1190081,Ce4SiRh12,0.0
mp-1190248,Sm2Al3Ge4,0.0
mp-1190279,Tb7RhI12,0.1778
mp-1190401,BaAgSbS3,1.422899999999999
mp-1190512,Na2UTeO7,1.8813
mp-1190543,Rb2Se2O7,3.0934
mp-1190599,DyNiB4,0.0
mp-1190832,YB4Ru,0.0
mp-1190840,Li8Pr7Ge10,0.0
mp-1190862,Sc2Pd,0.014899999999999
mp-1191856,In2As2Cl2O5,3.1661
mp-1192291,GdB4Ru,0.0
mp-1192379,Na2PtF6,2.7661
mp-1192858,Ce5(MgGe)8,0.0
mp-1193160,Eu(HoS2)2,0.0
mp-1193503,Eu5Cd2Sb5O,0.0
mp-1193569,LaSO5,0.8386
mp-1193666,Ba4In2Te2S5,2.0863
mp-1195274,Bi12Rh3Cl2,0.0
mp-1195388,Cs2TiCu3F12,0.4102
mp-1195705,Cs4Ge(PS3)4,2.0929
mp-1196458,Eu5Pt4,0.0
mp-1197632,Sr2V3Se5O18,2.564899999999999
mp-1197916,SrGaBO4,3.7719
mp-1198663,K2Li(H2N)3,2.0661
mp-1199442,Sc5RuCl9,0.0
mp-1200384,Hf3(VGa2)2,0.0
mp-1200548,B5Pb2IO9,3.3111
mp-1202567,U(PO3)4,0.013900000000000001
mp-1202720,Cs2TeS3,2.4192
mp-1203071,Yb3Co4Ge13,0.0
mp-1203572,Er11Ge10,0.0
mp-1203930,Sm(NO3)3,3.1583
mp-1205608,SmMn2SiC,0.0
mp-1205762,La2MgSi2,0.0
mp-1205813,Gd2MgSi2,0.0
mp-1205949,PrMgIn,0.0
mp-1205985,Zr6Te2Pt,0.0
mp-1206542,DyCdAu,0.0
mp-1207109,SmHg2,0.0
mp-1207513,YbTl(WO4)2,0.0
mp-1207659,YAg(WO4)2,3.1192
mp-1207934,U4Ga12Ni,0.0
mp-1208059,Tm2(Ga3Rh)3,0.0
mp-1208547,Tb2(Ga3Rh)3,0.0
mp-1208563,Tb2Sc3Si4,0.0
mp-1208895,Sm2HgO4,2.2283
mp-1209447,Rb2GdCl5,2.5822000000000003
mp-1209667,Rb2LaI5,2.7991
mp-1209921,Nd2Si5Ni3,0.0
mp-1209963,NaLaCuTe4,0.0
mp-1209999,NaMnFeF6,2.0895
mp-1210049,NdNiGe,0.0
mp-1210368,Na2PbO3,1.250499999999999
mp-1210625,LuZnPt,0.0
mp-1210813,Lu3Fe2Si3,0.0
mp-1211246,LaSiPd,0.0
mp-1211389,La4Mg3Ag10,0.0
mp-1211549,La3SbO7,2.8206
mp-1211552,Li3Mn2(SeO3)4,0.7258
mp-1211682,KNp2F9,0.28900000000000003
mp-1212029,K2LaBr5,3.3865
mp-1212567,Hf2Be17,0.0
mp-1213047,Er(Al5Re)2,0.0
mp-1213489,Gd3(P3Pd10)2,0.0
mp-1213528,Eu3Sc2(FeO4)3,0.0
mp-1213991,CaMnSiO4,2.5995
mp-1214524,Ba4Dy(CuO3)3,0.0
mp-1214739,Ba2CdGe2O7,2.927699999999999
mp-1214889,Al11Re4,0.0
mp-1215463,YbPaO4,0.0
mp-1215570,Zr3(Sn2Sb)2,0.0
mp-1215840,Yb3DySb3,0.46970000000000006
mp-1215927,YEr(SnPd2)2,0.0
mp-1216394,VCr,0.0
mp-1216453,V6SiGe,0.0
mp-1216546,Tm2C,0.0
mp-1216804,TlV3Cd4O12,2.3383
mp-1216853,Tm2Si9B36C,1.2087
mp-1217357,Te8Ir3,0.0
mp-1217731,Tb2CrSbO7,1.889199999999999
mp-1218428,Sr3LiBiO6,1.8560999999999992
mp-1218978,SmTmS2,0.0
mp-1219413,Sc8B8As3Rh20,0.0
mp-1219884,Pr6S3(OF4)2,2.644
mp-1220346,Nd5Sn15Rh8,0.0
mp-1220386,Nd2CuSi3Rh2,0.0
mp-12210,YbP5O14,0.0
mp-1221175,Na4SrTa5O15,0.0
mp-1221519,Mo2CN,0.0
mp-1221656,MnAl2Ni,0.0
mp-1221990,MgVCrO4,1.8579
mp-1222187,Mg2Cu3Ge,0.0
mp-1222613,Li2MgTl,0.0
mp-1222842,LaGa3Pd,0.0
mp-1223592,La9Al5S21,2.2308
mp-1224044,K2(NbS2)3,0.0
mp-1224681,GdAgSn2,0.0
mp-1224996,Gd8Sb3O8,0.0
mp-1226280,Cr4CdAgSe8,0.0
mp-1227255,CaCeV2O8,1.623
mp-1228148,BaInCuF7,1.3397000000000001
mp-1228373,Ba3Cu17AgP6,0.0
mp-1228593,Ba6Y(ReO6)3,1.9731
mp-1229015,AgPt,0.0
mp-12743,CrTe4Au,0.0
mp-12832,Ba3CaRu2O9,0.0
mp-12956,Yb(FeP3)4,0.0
mp-13602,Cd3(AsO4)2,1.6653
mp-13614,Rb2Be3Cd2F12,5.236499999999999
mp-14235,SrGa2(SiO4)2,3.9614000000000003
mp-14650,Nd10Se19,0.28440000000000004
mp-1542,YB2,0.0
mp-1567250,CaNi(GeO3)2,2.7634
mp-16478,Tb2Si5Ru3,0.0
mp-1674,PrSe,0.0
mp-16911,Rb2S5,1.9768000000000001
mp-17189,K3Ce(PO4)2,0.049800000000000004
mp-17220,Rb3TaS4,2.8458
mp-17546,Cs2RuO4,0.5857
mp-18041,SmTl(WO4)2,3.016899999999999
mp-18285,PrCo9Si4,0.0
mp-18469,SrMgP2O7,5.366
mp-18845,Ba2FeWO6,0.0
mp-19077,CrAsO4,2.630299999999999
mp-19166,Sr3NiPtO6,0.0
mp-19189,K2Co(SeO3)2,0.0
mp-19379,CoSO4,2.1673
mp-19398,FeAsO4,1.3679999999999999
mp-20007,MnNiGe,0.0
mp-20123,Te2Au,0.0
mp-20145,TiGaCo2,0.0
mp-20236,DyIn3,0.0
mp-20277,RbEuO2,0.0
mp-20356,Ce2SbO2,0.0
mp-20369,CeIn3,0.0
mp-20414,U7Te12,0.0
mp-20460,NiSeO3,0.0
mp-20622,SiPd3,0.0
mp-20740,Tl4Te3Pb,0.47080000000000005
mp-20820,Pb(NO3)2,3.6519
mp-20870,Dy2InPd2,0.0
mp-20975,CeIn5Ir,0.0
mp-21157,TmNiGe,0.0
mp-21330,EuAgAs,0.0
mp-21430,YbPb3,0.0
mp-21508,Y2Pd2Pb,0.0
mp-21760,Rb2In2Sb3,0.7399999999999991
mp-21870,Pr2InPd2,0.0
mp-2212,ScCo,0.0
mp-22234,Eu2C(NO)2,0.0
mp-22287,NbGeIr,0.0
mp-22361,CeReB4,0.0
mp-22698,DyFeSi,0.0
mp-22765,Eu2Si3Pd,0.0
mp-22775,Sr(Sb3Ru)4,0.0
mp-23136,KBi(WO4)2,2.7693000000000003
mp-23179,NiBi3,0.0
mp-23245,ErBi,0.0
mp-23324,BiSBr,2.0352
mp-23388,Bi2(MoO4)3,2.6349
mp-23467,CsSn2Br5,2.4626
mp-23853,CoH4(ClO)2,2.8076
mp-2434,SrTl,0.0
mp-2497,GdZn,0.0
mp-2510,ZrHg,0.0
mp-2665,PrRu2,0.0
mp-27297,ReCl4O,0.647
mp-27424,BaCu4S3,0.1287
mp-27642,PaBr5,1.959299999999999
mp-28158,K4Be3O5,3.4459
mp-28290,CdTeO3,2.9734
mp-28570,NaInI4,2.4484
mp-28936,CsMoF7,3.4794
mp-2906,Ho(NiP)2,0.0
mp-29154,Hf2CoP,0.0
mp-2935,Li2GeAu,0.0
mp-29557,CuW3Cl7,2.401
mp-29633,LiGePd2,0.0
mp-29970,Cs3Sb5O14,0.9142999999999991
mp-30368,Ca5Au3,0.0
mp-30381,Li2GaAu,0.0
mp-30433,BaSn3Pt,0.0
mp-30619,Zr3Co,0.0
mp-3062,Sm4S3N2,1.3256000000000001
mp-30624,Dy11Sn10,0.0
mp-30630,EuTl2,0.0
mp-30672,Ti3Ga,0.0
mp-30805,SrNiSn3,0.0
mp-30842,ZrPd3,0.0
mp-30854,UPt2,0.0
mp-31056,Dy3InN,0.0
mp-31144,Rb3Au7,0.0
mp-3286,Ce(AlZn)2,0.0
mp-3502,Zn2Te3O8,3.3810000000000002
mp-3633,Er(Al2Fe)4,0.0
mp-36383,Ag3(PO4)2,0.0
mp-371,La3Tl,0.0
mp-3817,La2Au5F21,1.8445
mp-3847,DyCoC2,0.0
mp-3951,Ti2CuS4,0.0
mp-4014,Pr(CuSi)2,0.0
mp-4193,Tm9(FeGe)10,0.0
mp-4374,UAsS,0.0
mp-4492,MnCo2Si,0.0
mp-4536,ScNi2Sn,0.0
mp-4855,Li2SeO4,3.808
mp-4870,Cu(BO2)2,0.0
mp-499,AgO,0.0
mp-5022,Er(SiRu)2,0.0
mp-505019,USb2Ru,0.0
mp-505076,GaNi2BO5,3.0742
mp-505234,BaP2PbO7,4.3965
mp-5080,Ba5Mg18Si13,0.0
mp-5129,Y(CoSi)2,0.0
mp-5365,DyCuSi,0.0
mp-541018,MnP4O11,3.849
mp-543028,Tl2TeO3,2.0188
mp-5448,Pr3SbO7,2.7314
mp-5508,Th(SiPd)2,0.0
mp-551244,CsK2CoO2,1.837899999999999
mp-553308,CsNdO2,2.9366000000000003
mp-554249,Bi6Cl3O7F,2.871299999999999
mp-554700,V2Zn3TeO10,2.8511