material_id,pretty_formula,band_gap
mp-22158,TbCoC,0.0
mp-22216,In2S3,0.8348999999999991
mp-2226,DyPd,0.0
mp-22270,CoP,0.0
mp-22564,PrMnO3,1.4020000000000001
mp-22609,Eu(CdP)2,0.0
mp-22737,Sb8(PbS5)3,1.6195
mp-22740,CeCuSi,0.0
mp-22804,Na3In2(AsO4)3,2.2756
mp-22812,In2Ir,0.0
mp-23399,Rb2AgI3,2.5762
mp-23408,Tl4Bi2S5,1.0173
mp-2348,Zr2Au,0.0
mp-2385,TaCr2,0.0
mp-2462,PrCu5,0.0
mp-27005,LiMo2(PO4)3,1.4206
mp-27393,AlPd5I2,0.0
mp-27757,Be4B,0.0
mp-27927,NbAlO4,3.405599999999999
mp-28046,AlP2I9,1.6561
mp-28143,H8S5N2,2.1222
mp-28159,As(BrF2)3,1.6356000000000002
mp-28301,OsBr4,0.0
mp-28398,Na5Mn3F14,1.4714
mp-28416,Ce3Sn7,0.0
mp-28428,K3Nb2Se11,1.059
mp-28566,NaTiSe4,0.9116000000000001
mp-28575,W(S4Cl3)2,0.6467
mp-28737,K2(CuTe)5,0.0
mp-29118,Ho3Ge3Ir2,0.0
mp-29128,K2Te4O9,2.9336
mp-29377,K5GaSe4,1.9817
mp-29481,Rb2WBr6,0.0
mp-29567,CuSe2Br,0.8881999999999991
mp-29811,Hf3P3Pd4,0.0
mp-29841,Rh3S4,0.0
mp-30077,K2GaSb2,1.104199999999999
mp-30386,HoAu3,0.0
mp-30426,BaCdBi2,0.0
mp-30428,BaCu,0.0
mp-30447,Sr9Cd4Bi9,0.0
mp-30660,Ga5Pd,0.0
mp-30874,Th5Sn4,0.0
mp-31008,Na14Al4O13,2.4679
mp-31202,Pr(SiAu)2,0.0
mp-31253,Ga2Ir,0.0
mp-31364,Ce(Al5Ru)2,0.0
mp-32077,Mo2(PO4)3,1.0368
mp-32635,Sr3P2,0.13840000000000002
mp-3465,LaB2Rh3,0.0
mp-350,Zr5Te4,0.0
mp-36235,Na(ScI3)2,0.0
mp-4325,Zr(SO4)2,3.5636
mp-4371,Nd(CuO2)2,0.0
mp-4421,LaTaO4,3.451699999999999
mp-452,CoAs3,0.0
mp-4657,Li5GaO4,3.7925
mp-466,Nb2F5,0.15510000000000002
mp-4667,ZrSnRh,0.0
mp-4873,Ce2TeO2,0.0
mp-5004,Na2B2Se7,1.5382
mp-5031,TaSiAs,0.0
mp-504659,Hf2P,0.0
mp-504874,YB7Mo3,0.0
mp-505296,Ce2MgSi2,0.0
mp-505363,P3Pd7,0.0
mp-505679,HfV2O7,2.6503
mp-510264,KY(WO4)2,3.5193000000000003
mp-510596,EuCuSeO,0.0
mp-531882,U7(Pd3S4)8,0.0
mp-540767,Fe2(SO4)3,0.009000000000000001
mp-541141,K3IrCl6,1.993
mp-541407,RbCuSnS3,0.13260000000000002
mp-541773,Na2VCuF7,0.0
mp-542220,Cs3As,0.0
mp-542697,Rb2RuO4,0.5314999999999991
mp-542939,Ba3ZnIr2O9,0.0
mp-546862,HgPb2(ClO)2,2.3759
mp-552537,Sr2CuBrO2,2.375499999999999
mp-554363,Pr2Ti3(ClO4)2,2.968
mp-554379,AsXeF11,2.025
mp-555212,Ba2InBrO3,1.8236999999999992
mp-555258,Ba3NaRu2O9,0.0
mp-555343,Ni5Se4(BrO6)2,2.923499999999999
mp-556243,CaV2(PO5)2,1.8735
mp-556413,Na4Cd2Si3O10,2.7507
mp-556766,ErMoO4F,3.7578
mp-556824,Tl2Ni4P4O15,3.3745000000000003
mp-557665,K3Sn5Cl3F10,3.216599999999999
mp-557755,Ba3Cr2MoO9,0.0
mp-557845,Na2TiS2O,2.482
mp-557875,Rb3In(PO4)2,3.4028
mp-558221,Ba2V4Cd3O15,2.8927
mp-558571,Sc2Te5O13,2.953499999999999
mp-558751,Ca(BiO2)2,2.544599999999999
mp-559521,InBi2S4Cl,1.6581000000000001
mp-559639,K4U(PO5)2,2.1194
mp-560230,CeAg6(NO3)9,0.0
mp-560534,Ba3Er2(PS4)4,2.3786
mp-560613,Na2TeO4,1.8126000000000002
mp-561015,Y9C4I8O,0.0
mp-561047,Sr6(RhO3)5,0.0
mp-562074,CsK4TlO4,1.5380999999999991
mp-567159,Dy6Ti4Al43,0.0
mp-567224,Mg(SiB6)2,1.9371
mp-567479,Ho4InIr,0.0
mp-567910,CdHg6(As2Br3)2,1.3417
mp-568,TiSb2,0.0
mp-568017,Ga8Cu3W2,0.0
mp-568083,LaNi2B2C,0.0
mp-568182,Ce(CoAs)2,0.0
mp-568322,Sr3Li3(NiN)4,0.0
mp-568501,SrCdBi2,0.0
mp-568588,NdTlSe2,1.4442
mp-568693,Gd(Al3Ni)3,0.0
mp-568695,CaCdSn,0.0
mp-568885,Ce2Ga12Pd,0.0
mp-569047,SmTlPd,0.0
mp-569743,Ti4MnBi2,0.0
mp-569970,ZrHg3(SeBr3)2,1.937199999999999
mp-570102,HoSiRu2C,0.0
mp-570449,Ba14Na7CaN6,0.0
mp-570853,SrCeI4,0.0
mp-570876,NaNd(GaSe2)4,1.7527
mp-571171,Ga2PbSe4,2.0313
mp-571313,Hf(SeCl6)2,2.7944
mp-572,SmCd,0.0
mp-5723,ZrAlNi,0.0
mp-573051,ReO3F,3.0425
mp-573471,Li17Sn4,0.0
mp-574458,Zr21Re25,0.0
mp-5852,Pr(SiOs)2,0.0
mp-585963,Rb7Th2(P2Se7)3,1.0746
mp-605809,Ba11In6O3,0.0
mp-610738,Zr(InBr3)2,2.4169
mp-6118,Ca3Cu3(PO4)4,0.6000000000000001
mp-616140,Cs5SiAs3,0.6071999999999991
mp-616175,EuSO4,1.0866999999999991
mp-617312,Sm3Si2Ni,0.0
mp-622086,La2GeS5,2.0242
mp-623038,Nb5As3,0.0
mp-640067,Ni4B3,0.0
mp-640781,K17In41,0.0
mp-646321,Lu5(In2Ni)2,0.0
mp-647220,Cd85Pd27,0.0
mp-647729,Zr14P9,0.0
mp-658046,La8Al4I7,0.0
mp-672313,Sc6Pb5,0.0
mp-674332,U17O31,0.0
mp-676780,LiMn9Se10,0.0
mp-722913,Hf3Zn3N,0.0
mp-733932,InH5(NF)2,3.5048999999999992
mp-734019,Na2Zn(HO)4,3.0835
mp-7477,RbErO2,3.6779
mp-752972,NaV3O8,1.8435000000000001
mp-756123,Tm6WO12,3.3897
mp-756506,V2NiO6,2.6805
mp-759541,Ba(PdO2)2,0.0
mp-760803,LiVF5,2.073
mp-761184,Na2SnO3,2.5096
mp-7614,Si(Ag4S3)2,0.7551000000000001
mp-766236,GdErO3,3.234
mp-767218,Li9(NbS2)14,0.0
mp-772189,Bi3Ir3O11,0.0
mp-776667,Cr3(FeO6)2,2.0265
mp-7829,MnNbSi,0.0
mp-8136,ThSO,1.114499999999999
mp-844,Ca3N2,1.1111
mp-849286,Ba(GaS2)2,2.899899999999999
mp-861507,ScAlIr2,0.0
mp-861643,CaLaMg2,0.0
mp-862262,LaCdHg2,0.0
mp-862924,PmInPd2,0.0
mp-862930,Li2PmIn,0.0
mp-862954,PmPd3,0.0
mp-863698,Pm2MgAl,0.0
mp-864686,Nd2ReC2,0.0
mp-864807,HfZnNi2,0.0
mp-864808,TbInPd2,0.0
mp-864877,Hf2CoRe,0.0
mp-864889,ZrZn3,0.0
mp-864910,MgZrRh2,0.0
mp-864930,LiTiIr2,0.0
mp-864944,MnBe2Pt,0.0
mp-865256,LuMgZn2,0.0
mp-865260,Lu2ZnIr,0.0
mp-865337,Lu2NiIr,0.0
mp-865462,MnV2Os,0.0
mp-865470,Ac2CuSn,0.0
mp-865487,VZnRh2,0.0
mp-865731,Li2HgPd,0.0
mp-865755,YbCeHg2,0.0
mp-865782,Yb3SiO,0.0
mp-865838,LiSiRu2,0.0
mp-866058,LiGd2Ru,0.0
mp-866115,Be2PdRh,0.0
mp-866125,LuTaRu2,0.0
mp-866299,ErTaOs2,0.0
mp-866397,Gd4Ni13C4,0.0
mp-867130,SmHoMg2,0.0
mp-867141,ReOs3,0.0
mp-867234,TbMgHg2,0.0
mp-867240,SmMgRh2,0.0
mp-867321,AcInHg2,0.0
mp-867356,TcRu3,0.0
mp-867902,LiSiRh2,0.0
mp-867916,ScGaIr2,0.0
mp-867927,LiVIr2,0.0
mp-867963,Pu(SiPt)2,0.0
mp-959,LaAl3,0.0
mp-9595,NbInO4,3.064699999999999
mp-971921,TbSmHg2,0.0
mp-973374,LiMg2,0.0
mp-973442,Lu2AgPt,0.0
mp-976182,PrErTl2,0.0
mp-976311,HoErRu2,0.0
mp-976578,NdH3,0.07640000000000001
mp-976952,NaPuO3,0.0
mp-977413,HoCdHg2,0.0
mp-980757,Sm5Sb3,0.0
mp-980769,SmCu,0.0
mp-984716,CaSn4(PO4)6,3.518499999999999
mp-989550,Rb2TlInCl6,2.6353
mp-1002123,KZrS2,0.0
mp-1007786,HfIr,0.0
mp-10132,UB2Os3,0.0
mp-1014230,TiZn,0.0
mp-1018902,PrSbPt,0.0
mp-1019360,ThPSe,0.0
mp-1020613,Rb5GaO4,1.8405
mp-1025369,Tm2Mo2C3,0.0
mp-1025513,ZrGe,0.0
mp-1029860,Ca5(RuN3)2,0.0
mp-10300,ZrMoP,0.0
mp-1053,NdZn,0.0
mp-1054,ErTl,0.0
mp-1068217,Tb2Ni2Sn,0.0
mp-1069270,ZnNi3N,0.0
mp-1069658,EuGe3Rh,0.0
mp-1070321,NdSi3Rh,0.0
mp-10711,VSi2,0.0
mp-1073,CaCd,0.0
mp-1078372,Na2MgPb,0.0
mp-1078593,LaInNi,0.0
mp-1078614,LaCdPd,0.0
mp-1078752,SmCoGe2,0.0
mp-1078924,Ce(NiSb)2,0.0
mp-1079673,ThSe3,1.4991
mp-1079810,HfSn2,0.0
mp-1080073,MnTe,0.0
mp-1080480,CeSi2Ag,0.0
mp-1080801,NdLuS3,0.8156000000000001
mp-10852,La(BC)2,0.0
mp-1087483,ThCuPO,0.0897
mp-1087495,Tc3B,0.0
mp-1092248,TbInPt2,0.0
mp-10965,DyAgSb2,0.0
mp-1101777,Pr3(AgSn)4,0.0
mp-1101850,Ho3(CuSn)4,0.0
mp-1102065,HoAl3,0.0
mp-1102302,CeOs2,0.0
mp-1102310,HfCoGe,0.0
mp-1102732,HfSiW,0.0
mp-1102822,ThB4W,0.0
mp-1103109,LaAlPt,0.0
mp-1103596,Ce(Ge2Rh3)2,0.0
mp-1103812,V4GeS8,0.0
mp-1104145,Eu2Zn2P3,0.0
mp-1105456,HgAs2H2F14,3.324999999999999
mp-1105559,YGaPd2,0.0
mp-1105625,Ho2Ge5Ru3,0.0
mp-1105750,LiAu(S2O7)2,2.0278
mp-1106085,Nb2PdS5,0.0
mp-1106336,Ho7Rh3,0.0
mp-1106401,Ce5AgPb3,0.0
mp-11084,EuCdAu,0.0
mp-1112527,Cs2NaTlCl6,1.9339
mp-11203,Lu6FeSb2,0.0
mp-11276,BeRh,0.0
mp-11277,ScBe5,0.0
mp-11306,LuCd3,0.0
mp-11506,Ni3Mo,0.0
mp-11753,Lu7(TePd)2,0.0
mp-1178141,KDyO2,3.9736000000000002
mp-1180,MnPt3,0.0
mp-1180394,Pr2Hf3(MoO4)9,3.6865
mp-1183951,Cs3Pb4Au,0.706
mp-1184112,Er2MgOs,0.0
mp-1184208,ErTlRh2,0.0
mp-1184250,EuTlHg2,0.0
mp-1184521,GdErZn2,0.0
mp-11846,Pr(AlZn)2,0.0
mp-1184648,HfZrFe2,0.0
mp-1184850,HoTmRh2,0.0
mp-1185012,LaErTl2,0.0
mp-1185958,MgScPt2,0.0
mp-1185986,MnBeIr2,0.0
mp-1186074,Na3Pd,0.0
mp-1186296,NdCd3,0.0
mp-1186432,Pm2AlCd,0.0
mp-1186469,PrPbAu2,0.0
mp-1186823,PuPt3,0.0
mp-1187461,Ti2VOs,0.0
mp-1188088,SmGePd2,0.0
mp-1188302,Pr5Pb3,0.0
mp-1188310,Tm5Ge3,0.0
mp-1188648,Y6NiBr10,0.5087
mp-1188834,Tb4Ge6Ir7,0.0
mp-1188840,SmScS3,1.8363
mp-1189310,Ho3Cu3Sb4,0.4747
mp-1190090,EuAl2Ge,0.0
mp-1190225,YGePd,0.0
mp-1190232,Yb3Sn5,0.0
mp-1190682,CsPr3CI6,0.7280000000000001
mp-1190726,Cs4In2S5,2.1801
mp-1190882,LiLu(WO4)2,3.8325
mp-1190945,La3MgAlS7,2.29
mp-1191130,GdReB4,0.0
mp-1191458,Sm8Ga3Co,0.0
mp-1191671,Er2Fe17C3,0.0
mp-1192175,RhSe2,0.0
mp-1192376,Ba3AlAs3,0.6808000000000001
mp-1192408,KCo(PO3)3,0.0543
mp-1192590,KBaAsO4,3.8409
mp-1193090,TmBe13,0.0
mp-1193746,ZnC2(N2O)4,1.7147000000000001
mp-1194023,BaCo2(PO4)2,2.268399999999999
mp-1194035,Dy4Zn5Ge6,0.003999999999999
mp-1194252,Zr4Pt2N,0.0
mp-1194288,PaBe13,0.0
mp-1194418,CsCeSiS4,0.060000000000000005
mp-1194777,Cu3Hg2(Te3O8)2,0.4474
mp-1195322,Rb2Pd(S4O13)2,1.6356000000000002
mp-1195461,Ba7Al4Sb9,0.0
mp-1195710,Zr(Zn10Cu)2,0.0
mp-1196136,Gd2Ge(BO4)2,3.183
mp-1196472,Pr2US5,0.023399999999999
mp-1197692,Tb3Ga2,0.0
mp-1197804,CuP4S3Br,1.755399999999999
mp-1198014,Pr3Si11Pt23,0.0
mp-1200073,LuCo3P2,0.0
mp-1200080,Pr3Rh4Pb13,0.0
mp-1200791,In4As5(BrO4)3,2.963
mp-1200983,Re2S(ClO2)4,2.0966
mp-1202990,Dy(BRu)4,0.0
mp-1204213,Tb2Nb2S7O30,0.1275
mp-1205044,Gd2Si4CN6,2.0292
mp-1205316,BaAgSb,0.041400000000000006
mp-1205465,Ce4Mg7Ge6,0.0
mp-1205489,Er7(TeRh)2,0.0
mp-1205690,Sr2NbCrO6,2.3058
mp-1205746,Cs3UF6,0.0
mp-1205758,Ba2EuMoO6,0.054999999999999
mp-1205944,Sr2TaVO6,0.0
mp-1206029,Ba2TmTaO6,3.4065
mp-1206059,Rb2NaCrCl6,1.4031
mp-1206259,TmMgAu,0.0
mp-1206321,YbTlBr3,3.6794000000000002
mp-1206381,NdSiNi,0.0
mp-1206494,LuInNi,0.0
mp-1206794,LiAu,0.0
mp-1207066,La(AgGe)2,0.0
mp-1207130,Ba2SmUO6,0.8622999999999991
mp-1207495,Zr6GeI14,0.931
mp-1207639,Yb5Co19P12,0.0
mp-1207668,TmSeF,1.8829999999999991
mp-1207698,Y(Al5Ru)2,0.0
mp-1207814,Y3(Al3Os)4,0.0
mp-1208141,UMo4PbO16,1.7188
mp-1208161,U6TlF25,0.10740000000000001
mp-1208495,Tb3(P3Pd10)2,0.0
mp-1208610,Sr5P3O13,0.4012
mp-1209310,PrSi2Ir3,0.0
mp-1209676,RbZr6MnCl14,1.2076
mp-1209778,Pr3HfSb5,0.0
mp-1209799,Pr3CBr3,0.0
mp-1210053,Pr3Sn13Ru4,0.0
mp-1210695,Mg3Cu2(AsO4)3,0.020100000000000003
mp-1211152,Li3Eu3(TeO6)2,0.08360000000000001
mp-1211384,La4CdPt,0.0
mp-1211524,LaSb3Pd,0.0
mp-1211649,K4HfO4,2.8777
mp-1211659,K3Lu(BO3)2,3.2759
mp-1212167,In5CuSe8,0.4937
mp-1212412,Ho6Al43V4,0.0
mp-1212638,Gd2Cu(GeO3)4,0.726
mp-1213012,Eu(PO3)3,0.42590000000000006
mp-1213103,Dy12Co5Bi,0.0
mp-1213249,Er5Ni2Bi,0.0
mp-1213477,CsHf6CCl15,1.2179
mp-1214461,Ba4Li(BiO4)3,0.168599999999999
mp-1214695,Ba2VCu2F12,0.7368
mp-1215471,Zr2HC,0.0
mp-1215571,YbZnGe,0.0
mp-1215763,Zn3P6N12Cl,0.0
mp-1215874,Zr3(V2Fe)2,0.0
mp-1216151,Zn3Fe9(PO4)8,3.320299999999999
mp-1216529,Tm2SbTe,0.0
mp-1216780,UMnFeSi2,0.0
mp-1217142,Ti2CN,0.0
mp-1217512,TbSi4B18C,1.4471
mp-1217733,Tb2Ga3Co14,0.0
mp-1218450,Sr3La(NiO4)2,0.0
mp-1218749,Sr2LiMgSi3,0.0
mp-1219116,SmHo3Ni4,0.0
mp-1219576,RbNbTeO6,2.1357
mp-1220246,NiH8(ClO2)2,3.716999999999999
mp-1220844,Na9Sm(SiSe3)4,2.368
mp-1222648,Li2MgCd,0.0
mp-1222673,Li2GaCu3,0.0
mp-1222856,LaGe2PdRh,0.0
mp-1222935,LaAlZn,0.0
mp-1223048,La2ZnSb4,0.0
mp-1223362,La7Ta3(W2O15)2,3.5444
mp-1223503,K5As4,0.0
mp-1224120,La12Mn3(AlSe7)4,0.0015
mp-1224198,K4Ba2SnBi4,0.105199999999999
mp-1224476,Ho3(NiRu2)2,0.0
mp-1224498,Hf5Zr5Ga6,0.0
mp-1225092,Er(AlFe)6,0.0
mp-1225573,DyUTe4,0.0
mp-1226188,Dy2(GaNi)5,0.0
mp-1226885,Ce2CuSi3,0.0
mp-1227251,CaMnFeGe2,0.0
mp-1227952,CeGa2Ni3,0.0
mp-1227999,Cs3Re6(SCl)7,2.372099999999999
mp-1228393,Ba2InBiO6,0.0
mp-1228695,Ba6Nd2Fe4O15,1.0899
mp-1229027,AlCuSnSe4,0.551299999999999
mp-12856,Pr(AlSi)2,0.0
mp-13140,BaLiGe2,0.0
mp-13327,NdLuSe3,0.5247
mp-13447,Zn13Rh,0.0
mp-1356,Sb2Pd,0.0
mp-13568,NdS2,0.488199999999999
mp-13576,EuAsO4,0.0
mp-13579,ErGePt,0.0
mp-1388,DyRh2,0.0
mp-1424,GePd,0.0
mp-14581,CsCu2F6,0.0
mp-1472,ZrB2,0.0
mp-14782,Na6MnTe4,0.0
mp-14889,K9Fe2S7,0.5159
mp-1552,Mo2C,0.0
mp-16190,Lu4Zn5Ge6,0.0
mp-16209,K3La(PS4)2,0.0
mp-16307,Sr2MgIrO6,0.0
mp-16326,DyPPt,0.0
mp-16518,TmAl4Ni,0.0
mp-16526,AlPt2,0.0
mp-16559,KHo2CuSe4,1.047899999999999
mp-1660,ErZn,0.0
mp-1679,La2Ni7,0.0
mp-16932,Th2Co17,0.0
mp-17394,NaYGeO4,3.6639
mp-17441,Mg2GeS4,2.311
mp-1769,SbPd,0.0
mp-17960,BaSm2O4,3.500099999999999
mp-18758,Co2GeO4,0.5434999999999991
mp-19137,K2Mn(SeO3)2,3.6932
mp-19341,Tl2WO4,3.385
mp-19773,GdGa2,0.0
mp-19815,Eu2VO4,0.0005999999999990001
mp-19849,NpGa2,0.0
mp-19880,FeTe2,0.1232
mp-19986,DyGeRu,0.0
mp-20095,Eu(FeP)2,0.0
mp-2017,LuAs,0.0
mp-20206,ThIn3,0.0
mp-20555,NaPb3,0.0
mp-20672,Hf3P2,0.0
mp-20838,CaIn4Ir,0.0
mp-2084,Si5Ir3,0.9339000000000011
mp-20987,YZnSn,0.0
mp-21014,DySnPd2,0.0
mp-21194,NdGeRu,0.0
mp-21338,U(Mo3S4)2,0.0
mp-21386,Eu(PIr)2,0.2109
mp-21504,V4GaSe8,0.0
mp-21524,SrNiN,0.0
mp-21820,Yb2Sn5Pt3,0.0
mp-21856,Co2SiO4,0.0
mp-22091,NaZr2CoF11,3.4909
mp-22094,Tl2Ru2O7,0.0
mp-22115,TbSbRh,0.0
mp-22179,YTiSi,0.0
mp-2265,TbCo2,0.0
mp-22744,Ta11(NiSe4)2,0.0
mp-22873,SmBi,0.0
mp-23260,BaI2,3.4358
mp-23384,LiIO3,3.7256
mp-2364,PaO2,0.0
mp-2398,ScSn2,0.0
mp-2423,US,0.0
mp-24302,CdAs2HF13,3.9677
mp-2680,LaB6,0.0
mp-27310,Na4Sn3F10,3.5673
mp-2749,TiBe2,0.0
mp-27673,TaPS6,0.8658
mp-27966,Ag2Mo2O7,1.9177
mp-28089,P4Se3I2,2.0711
mp-28562,RbAsSe2,1.6265
mp-28679,NaGaBr4,3.4888
mp-28904,Na2Te4O9,3.1228
mp-29043,Hg4Sb2I3,0.7152000000000001
mp-29096,Hg3(SBr)2,1.5431
mp-29638,BiTePt,0.0
mp-29657,NaGe,1.118799999999999
mp-29996,La3PI3,0.0
mp-30280,K4(TiTe3)3,0.0
mp-30364,BaAu5,0.0
mp-30446,Ca9Cd4Bi9,0.0
mp-30492,Na2CdSn,0.0
mp-30500,TiCd,0.0
mp-30563,ZrCoSn,0.0
mp-30798,NbZn2,0.0
mp-31167,Er5Si3,0.0
mp-31292,Rb2PdSe16,0.8547
mp-31415,La3TaO7,3.4591
mp-31491,Sm(GePd)2,0.0
mp-32633,Dy6Se11,0.5317000000000001
mp-3361,Ba3Al2F12,6.706399999999999
mp-35690,Co5RuO8,0.0
mp-3676,MgCu4Sn,0.0
mp-38818,HfNbB4,0.0
mp-4353,TbAl4Ni,0.0
mp-4732,UGa5Co,0.0
mp-4985,Dy(MnSi)2,0.0
mp-504851,Rb2Na3InO4,1.9036
mp-504867,Sr3CuIrO6,0.0
mp-505081,Ti2NiP5,0.0
mp-505090,Na(CuO)2,0.0
mp-505149,CsCr5Se8,0.0403
mp-505435,Gd2Br3N,2.1461
mp-505569,CeH2,0.0
mp-505700,KInSe2,1.4657
mp-505759,Zr5Sb3,0.0
mp-510366,K6Co2O5,1.0163
mp-510688,HoCoSi,0.0
mp-5244,Ti2SbP,0.0
mp-530709,TlW3Br7,2.311
mp-540566,V2Hg2O7,1.281599999999999
mp-540586,Tl2SnO3,1.7112999999999992
mp-540759,Al2CoCl8,0.3448
mp-540921,CsCuF4,1.5786
mp-541001,LiInI4,2.2465
mp-541512,Ba3Cr2WO9,0.0
mp-542063,Rb4H6C2O9,3.9628
mp-542332,K2Cu(CO3)2,0.5509000000000001
mp-542463,Mg(AlCl4)2,5.1644
mp-549695,GdBi2ClO4,1.0115
mp-552651,La2Fe2Se2O3,0.0
mp-5529,MnFe2Si,0.0
mp-554706,AsSe(ClF2)3,3.714399999999999
mp-555085,KAu(NO3)4,2.0492
mp-555327,MnSeO4,1.2890000000000001
mp-555451,Sr3U(Te2O7)2,1.9851
mp-556224,Sr5V3ClO12,3.9452
mp-557664,Cs2TlBiF6,3.3686
mp-558206,K9U6BiO24,1.7174
mp-558293,K2Na(B3O5)3,5.300899999999999
mp-558456,Hg3Se4O5,1.8769
mp-558482,K17Fe5O16,2.0907
mp-559203,CdSeO3,3.4068
mp-559456,KNd(WO4)2,3.8644
mp-560340,La2Pd2O5,1.145699999999999
mp-560585,P3IrO9,2.245599999999999
mp-560591,NaTi2Al5O12,2.7235
mp-560631,KUSi2O7,0.5872
mp-560690,Sm2(MoO4)3,3.3034
mp-561261,CePS4,0.22389999999999902
mp-561403,Ba3V4PbO14,3.1799
mp-562764,Ba7B4S13,2.5401
mp-5641,Tm(MnGe)6,0.0
mp-567089,YbRh,0.0
mp-567317,Nd(AlGa)2,0.0
mp-567777,La9Sb16Br3,0.2275
mp-567852,SmCo9Si4,0.0
mp-567945,SnTePd,0.0
mp-568220,NbTe4,0.0
mp-568398,CaBiAu,0.0
mp-568942,Lu5NiPb3,0.0
mp-569309,RbMnCl3,1.3114
mp-569561,TeCl4,3.108399999999999
mp-569931,Pr(NiP)2,0.0
mp-570073,Np(NiGe)2,0.0
mp-570229,ThBr4,2.9454000000000002
mp-570491,TaNi3,0.0
mp-570597,La2GeI2,0.38730000000000003
mp-570798,Er3(P3Pd10)2,0.0
mp-570817,Cu2P8Se3I2,1.343899999999999
mp-570900,K4Sn9,1.123399999999999
mp-571057,KY(PSe3)2,1.883099999999999
mp-571457,Ti4NiBi2,0.0
mp-571527,Cs2LiInCl6,3.2284
mp-572597,SbPS4,2.0906000000000002
mp-573601,Th7Ru3,0.0
mp-5792,BaCuSn2,0.0
mp-579259,Eu3BeO5,0.0
mp-580354,CeNi3,0.0
mp-583297,Ba6Nb4S13O3,2.2867
mp-601842,Fe9Co7,0.0
mp-622041,ThInAu2,0.0
mp-6294,Sr2ErRuO6,0.0
mp-637220,Gd(SiPt)2,0.0
mp-645286,Gd(Co2B)6,0.0
mp-662549,Cs2GeTe4,0.5379
mp-662553,B2Pb2S5,1.6669
mp-675396,Sm3Eu3S8,0.0
mp-676749,Li2UCl6,0.195699999999999
mp-6790,Ba2Y(CuO2)4,0.0
mp-679989,Bi(Mo2Cl5)3,2.1517
mp-6938,ZnRh,0.0
mp-698567,Cr(Bi7O12)2,2.0176
mp-718,SnPd3,0.0
mp-747,BaPt2,0.0
mp-753546,Li8TiS6,2.2925
mp-753732,Li2CoSiO4,2.9522999999999993
mp-754757,SbRhO4,0.0
mp-755813,Sc6N2O5,0.0
mp-758985,RbTiPS5,1.192
mp-768505,LuGaO3,2.884699999999999
mp-769077,Mg2Te3O8,3.4781
mp-771660,MnP2O7,0.0
mp-772957,SrV4O10,1.7004000000000001
mp-777849,Nb3P6WO24,1.0382
mp-779594,Zn2As2O7,2.1404
mp-7950,ThSeO,0.7683999999999991
mp-8219,Zr(CuP)2,0.0
mp-8382,CePO4,0.16870000000000002
mp-8528,Tm(SiRh)2,0.0
mp-861617,LaHgAu2,0.0
mp-861630,Tc3Ru,0.0
mp-861894,Li2LaSn,0.0
mp-862617,AcAl3,0.0
mp-862665,AcGe3,0.0
mp-862711,Sc2CdIn,0.0
mp-862824,PaInPt2,0.0
mp-862944,Er2CuRu,0.0
mp-862960,PmSn3,0.0
mp-863705,Pm2MgGa,0.0
mp-864639,Ta2NbOs,0.0
mp-864767,YbZn11,0.0
mp-864788,NbInRu2,0.0
mp-865138,Hf2MnIr,0.0
mp-865615,GaSiRu2,0.0
mp-865739,YbCdAg2,0.0
mp-865805,TaZnCo2,0.0
mp-865888,TiSnRu2,0.11329999999999801
mp-865890,Li2CaIn,0.0
mp-865898,TiZnCo2,0.0
mp-866187,Ti2ZnTc,0.0
mp-867049,Ti13Si31Ni40,0.051200000000001
mp-867269,LiHo2Os,0.0
mp-867282,Tb2IrRh,0.0
mp-867306,AlCuAu2,0.0
mp-867500,PuI2,0.0
mp-867863,SmCu4Ag,0.0
mp-867884,RbBaTaS4,2.4774000000000003
mp-867904,AlGeRu2,0.0
mp-867932,Sm2MgGe2,0.0
mp-9317,KZrCuS3,0.5846
mp-943,Co3S4,0.0
mp-9568,Li3Ga2,0.0
mp-9581,Th(CuP)2,0.165499999999999
mp-972042,Zn3Cu,0.0
mp-972542,SmTlAu2,0.0
mp-973890,HoHfRu2,0.0
mp-975528,NdDyTl2,0.0
mp-977427,Zn2PtRh,0.0
mp-977433,ErMgZn2,0.0
mp-977592,Bi2Rh3S2,0.0
mp-978527,SmDyTl2,0.0
mp-978543,SmErTl2,0.0
mp-979042,Tm2BeOs,0.0
mp-981212,TmMg2,0.0
mp-981365,V2ReRu,0.0
mp-984743,Er2Ge5Rh3,0.0
mp-985298,Ce2HfS5,0.0
mp-985562,Nd11In9Ni4,0.0
mp-9858,Ba3Ge4,0.0
mp-9927,MgRhF6,0.0
mp-9968,PrSi,0.0
mvc-1700,Ba2ZnCu3F14,0.06520000000000001
mp-10136,Ti2ReB2,0.0
mp-10172,Na,0.0
mp-1019108,SmCoSi,0.0
mp-1020,TaRh3,0.0
mp-1025289,Ce2Fe2Si2C,0.0
mp-1025320,Ho2Re2Si2C,0.0
mp-1025536,PrGa2Ni,0.0
mp-1025552,LuGa2Ni,0.0
mp-1025557,CoMoP2,0.0
mp-10478,CeAsRh,0.030100000000000002
mp-1049,SrAs,0.0181
mp-10598,CuSn,0.0
mp-10607,Lu3TlC,0.093199999999999
mp-10609,Lu3SnC,0.0
mp-10669,Ba3(AlGe)2,0.0
mp-1069611,Tm2AlNi2,0.0
mp-1070806,BaTi2Sb2O,0.0
mp-1071506,Gd2AlNi2,0.0
mp-1071555,YbAgBi,0.0
mp-1071737,YZnGa,0.0
mp-1077552,TbNi4Au,0.0
mp-1077954,Ce(ZnAu2)2,0.0
mp-1078184,Eu4Bi2O,0.0
mp-1078185,Ba2LuSbO6,3.2383
mp-10782,RbTbSe2,2.01
mp-1078757,NdAlNi,0.0
mp-1078758,Sr2NiRuO6,0.0
mp-1078853,DyCdCu,0.0
mp-1078874,Ba2CeTaO6,0.0
mp-1078920,LaCu,0.0
mp-1079320,BaZnAsF,0.24709999999999901
mp-1079433,BaMg4Si3,0.0
mp-1079500,CaNiBN,0.0
mp-1079698,CeSb2Au,0.0
mp-1080611,CaIn2Ni,0.0
mp-1080664,CrB,0.0
mp-1084757,LaNiSn2,0.0
mp-1084794,NdCdGa,0.0
mp-1087494,YbPdPb,0.0
mp-10881,Ce3AlN,0.0
mp-1095692,ErCoGe,0.0
mp-1100762,Pm2TlAg,0.0
mp-1101788,EuInRh,0.0
mp-1101836,GdH2ClO2,3.0057
mp-1102297,BaGdCuS3,1.1217
mp-1102373,YGeIr,0.0
mp-1102537,NbVP,0.0
mp-1103670,TbGaNi,0.0
mp-1103732,Yb(H2N)2,2.6396
mp-1104393,LuZn12,0.0
mp-1104451,SmGa6,0.0
mp-1104853,Zr(Ni2As)2,0.0
mp-1105302,SrP2,0.8088999999999991
mp-1105807,NdGePd2,0.0
mp-1106074,Y6CoI10,0.12060000000000001
mp-1106094,KCO3,0.875799999999999
mp-1106153,Er3In5,0.0
mp-1106174,Tb7Rh3,0.0
mp-1106187,Er7FeI12,0.0
mp-11107,Ac2O3,3.5619
mp-1112610,Cs2TaHgF6,0.0
mp-1113361,Cs2EuCuCl6,0.0
mp-1114446,Rb2NaMoCl6,1.6325999999999992
mp-11416,TaGa3,0.0
mp-11438,Sc(GaFe)6,0.0
mp-11469,PrHg,0.0
mp-11495,LuRu,0.0
mp-11673,Sc2(SeO4)3,3.5824
mp-1173761,Na2CeO3,2.0463
mp-1181506,DyVSb3,0.0
mp-1182721,AsXe2F9,1.6347
mp-1183410,Ba5V5O14,1.2783
mp-1183717,CeMgAu2,0.0
mp-1183837,Co3Ni,0.0
mp-1184496,Gd3Lu,0.0
mp-1184989,LaDyTl2,0.0
mp-1185421,LiZnNi2,0.0
mp-1185582,Mg149Rh,0.0442
mp-1185861,MgGaPt2,0.0
mp-1186452,Pm2CuAu,0.0
mp-1186474,Pm2MgCd,0.0
mp-1186991,ScI3,1.7014
mp-1187201,Ta2VRe,0.0
mp-1187336,TbErIn2,0.0
mp-1187502,Tl3Bi,0.0
mp-1188251,Y(Co2B)6,0.0
mp-1188410,DyGe2Ir,0.0
mp-1188596,Er2Si5Ni3,0.0
mp-1188829,KTeP2,1.4008
mp-1188832,NdGaPd2,0.0
mp-1189811,Ce(Sb3Ru)4,0.1053
mp-1190093,Ba2NdInSe5,1.0692
mp-1190817,CsEuAsS3,0.5192999999999991
mp-1191472,Tb8Ga3Co,0.038899999999999005
mp-1191889,Eu2Pt2O7,0.0
mp-1192224,Y3MnB7,0.0
mp-1192507,Y(GeRh2)2,0.0
mp-1192540,Nb4NiS8,0.0
mp-1192739,Cs2V3O8,2.1336
mp-1193272,Zr6Al16Pt7,0.0
mp-1193821,Sc4Si2Pt7,0.0
mp-1193984,Eu(ErSe2)2,0.2071
mp-1194374,Nb4VS8,0.0
mp-1194376,Ba(SmS2)2,1.782
mp-1194470,Hf6Al16Pt7,0.0
mp-1194813,Rh2(Se3Br2)3,1.3799000000000001
mp-1195792,TmCo5P3,0.0
mp-1196159,Tm5(Co2Si7)2,0.0
mp-1196164,PrAs2Au,0.0
mp-1197394,Tb11Cd45,0.0
mp-1200778,Ho2B6Os,0.0
mp-12009,YbCdCu4,0.0
mp-1201912,Ce2ThS5,0.0