material_id,pretty_formula,band_gap
mp-1210989,Li3Er3(TeO6)2,3.1933
mp-1211452,LaSBr,2.5997
mp-1211474,K2Ti(CuS2)2,1.7253999999999992
mp-1212289,Ho6Ni20P13,0.0
mp-1212362,Ho2Si3Pd,0.0
mp-1212373,Ho2OsC2,0.0
mp-1212391,Ho2B6Rh,0.0
mp-1212405,Ho6Nb4Al43,0.014499999999999002
mp-1212549,NaV4Bi13O30,2.8099
mp-1212803,DyTeAs,0.34039999999999904
mp-1212882,Dy5BiPd2,0.0
mp-1212948,ErZnSn,0.0
mp-1213062,Dy3B7Mo,0.0
mp-1213120,Dy2(MoO4)3,3.5621
mp-1213396,KGaGeO4,3.1871
mp-1213466,Er21(In2Rh5)2,0.0
mp-1213791,CeGaIr,0.0
mp-1213884,CeTa7O19,0.0
mp-1213905,Cs3LaBr6,3.9286000000000003
mp-1215204,ZrTi2O,0.0
mp-1215412,Zr2(ZnGa)3,0.0
mp-1216911,TmCuPbS3,1.5820999999999992
mp-1217296,Th2Si3Rh,0.0
mp-1217388,Th7S12,0.0
mp-1217983,TaCo6Mo,0.0
mp-1218155,SrLaNiO4,0.0
mp-1218587,Sr4Te3(ClO2)4,3.294
mp-1219222,Sm2Ga5Cu3,0.0
mp-1219275,Re2Os(Se2Cl)2,1.2890000000000001
mp-1219589,RbCrNiF6,3.227999999999999
mp-1219774,Rb12Sn2As6O,0.3084
mp-1219800,Ni6Ge2P,0.0
mp-1220168,NdGa3Cu,0.0
mp-1220245,Nd2ZnSb4,0.0
mp-1220330,Nd2Al3Ge,0.0
mp-1220335,NbMoW,0.0
mp-1221229,Na4Eu2SiP4,0.0
mp-1221504,Mo3PdPtN,0.0
mp-1222782,LaPaO4,2.474999999999999
mp-1223960,K(Nb3S4)2,0.0
mp-1224756,Hf14Cu51,0.0
mp-1225114,GaFe4Co8Si3,0.0
mp-1226551,CePtRh,0.0
mp-1226887,CeAlCu4,0.0
mp-1227574,Ca4Cd3Au5,0.0
mp-1228093,BaMn6O12,0.0
mp-1228433,Ba2Na(SnAs)6,0.0
mp-1228982,CsMnFeF6,1.1415
mp-12306,BaCdSnS4,2.196399999999999
mp-12509,YZnPO,1.3665
mp-12571,HfBeSi,0.0
mp-12641,Ba2HoNbO6,2.8596
mp-12657,HfAl2,0.0
mp-1272139,SnBr2,2.1959
mp-12965,ErNi4B,0.0
mp-13038,Dy2C(NO)2,3.9838
mp-13171,YMgCu,0.0
mp-13448,Zn11Rh2,0.0
mp-14260,ZnAg(PO3)3,3.0283
mp-14565,K3P6N11,3.9959
mp-14721,KSiSbO5,3.2024
mp-14778,Ca3Zn3(TeO6)2,2.129599999999999
mp-15109,Sm(ZnP)3,0.12529999999999902
mp-15637,ZnRhF6,0.0
mp-15709,LuCo3B2,0.0
mp-15750,TaAgP4O13,2.0967000000000002
mp-15780,MgPPt5,0.0
mp-15805,Mn3ZnN,0.0
mp-15820,LiHoGe,0.0
mp-16260,Ca(GePd)2,0.0
mp-16516,TbAl2Ni,0.0
mp-1694,Yb2Ge,0.0356
mp-17093,ErSiPd,0.0
mp-17381,Y3Ge4,0.0
mp-17402,Yb11Sb10,0.0
mp-17477,AlFePO5,3.5128
mp-17500,GdPtF7,2.3562
mp-1761,LuIr2,0.0
mp-18055,La2Ge5Rh3,0.0
mp-1808,Ti2Ni,0.0
mp-1828,ThOs2,0.0
mp-18341,ErPtF7,2.304599999999999
mp-18351,Sr3(GeP2)2,0.9348000000000001
mp-18365,RbCuSe4,1.161099999999999
mp-19035,BaFeO3,0.0
mp-19264,Co3(PO4)2,2.9001
mp-19393,NdMn2O5,1.2475
mp-19518,BaCr(Si2O5)2,3.2289
mp-19739,Sc(FeGe)6,0.0
mp-1980,YbNi2,0.0
mp-1993,Tm5Mg24,0.0
mp-19966,GdTl,0.0
mp-19971,ZnCo2Ge,0.0
mp-20023,PrIn,0.0
mp-20166,Np(SiAu)2,0.0
mp-20311,FeSe,0.0
mp-20521,ScInPt2,0.0
mp-20637,SmCuPb,0.0
mp-20715,Pr2InGe2,0.0
mp-20971,SnPt3,0.0
mp-20990,Pr3InN,0.0
mp-21007,SmSnPt,0.0
mp-2108,Ti5Si3,0.0
mp-21258,EuIn2Pd,0.0
mp-21301,ScInNi2,0.0
mp-21343,CeB6,0.0
mp-21495,CrFeP,0.0
mp-21518,CeMgTl,0.0
mp-21531,U2Mn3Si5,0.0
mp-21719,Sc2V3Ge4,0.0
mp-22133,Eu(ZnSi)2,0.0
mp-22307,ScSi2Rh,0.0
mp-22418,Sr3(SnIr)4,0.0
mp-22489,HfCuSi,0.0
mp-22779,YbSnPt,0.0
mp-22797,EuPt2,0.0
mp-22866,HoBi,0.0
mp-23076,Rb2CoCl4,0.7373000000000001
mp-23228,PCl5,1.7945
mp-24522,CuH2SO5,0.0
mp-26997,LiCo(PO3)4,1.349899999999999
mp-2724,TbSb,0.0
mp-27410,Sn4P3,0.0
mp-27474,PaBr4,0.18500000000000003
mp-27490,Te2AuCl,0.0
mp-27752,Na6Ge2S7,2.4467
mp-279,LiIr,0.0
mp-28238,Ba4Sb4Se11,1.1141
mp-28368,TlAuCl4,1.7753
mp-28403,Ba2WO5,3.1711
mp-28431,Sb(IF3)2,0.5843
mp-2857,ScN,0.325
mp-28607,UReB3,0.0
mp-2863,CeCd3,0.0
mp-28788,Ba9(AuO6)2,1.8840999999999992
mp-29097,Hg3TeBr4,1.9357000000000002
mp-29210,Li2Ga,0.0
mp-29339,Lu(NbCl3)6,0.12460000000000002
mp-29354,Ba3(TaS4)2,0.7460999999999991
mp-29496,Pd(SeBr3)2,1.4073
mp-295,HoAs,0.0
mp-29933,Hf5P7Pd9,0.0
mp-29954,Tb16B4Br23,0.0
mp-30164,CsSn2Cl5,3.0742
mp-30172,Ho3Ge3Ru2,0.0
mp-30278,Ce3Ga4Cl,0.0
mp-30387,HoAu4,0.0
mp-30389,HoPbAu,0.0
mp-30469,TlBi2,0.0
mp-30516,Th3Sn13Rh4,0.0
mp-30595,CuSnRh2,0.0
mp-30600,TmCu5,0.0
mp-30682,ZrGa,0.0
mp-30717,KHg2,0.0
mp-30979,GaPS4,2.382799999999999
mp-31112,Tb3GaO6,3.6111
mp-31122,Er2MoO6,2.150499999999999
mp-31234,Ca4As7Ir8,0.0
mp-31320,Nd(C2N3)3,3.6630000000000003
mp-31379,Zr2Sb,0.0
mp-31423,Ho3(CuSi)4,0.0
mp-31471,K3PbAu5,0.0
mp-3155,Sc3FeC4,0.0
mp-319,Sm2Tl,0.0
mp-33318,Ca11Al14O32,3.372
mp-33554,Na3GdCl6,2.9839
mp-3488,Na2Ti3O7,2.998
mp-3545,CeMgSi2,0.0
mp-35596,Fe2NiO4,1.4208
mp-357,SmPd3,0.0
mp-3627,Eu(Mo3S4)2,0.0
mp-400,NdAl2,0.0
mp-4262,BeAlB,0.0
mp-4613,Zr2SnC,0.0
mp-504877,HoB7Mo3,0.0
mp-505282,CeGeRh,0.0
mp-505693,Mg2GeB2Rh5,0.0
mp-510624,SrFeO3,0.0
mp-5313,HoCo3B2,0.0
mp-540675,SeCl4,3.0391
mp-540730,Cs2CoO3,0.426199999999999
mp-540753,KCe(PO3)4,0.31210000000000004
mp-541057,Rb4Re6S13,1.3403
mp-541070,Ta2NiSe5,0.002899999999999
mp-541193,Hg7Cl2O3,0.9253
mp-541766,Rb3InP2,0.5004000000000001
mp-541852,Co21(ReB3)2,0.0
mp-542445,K2PaF7,3.8952
mp-542454,Mo2As3,0.0
mp-542558,KUCrO6,1.6883
mp-542680,Na3In2Au,0.0
mp-553927,Pu(IO3)4,0.09819999999999901
mp-554506,K3In3(PO4)4,3.2253
mp-554572,K3NbP2O9,2.8040000000000003
mp-554685,Li2U3V2O15,2.273399999999999
mp-554842,Cs5Si3AgO9,2.6812
mp-555232,LiU4P3O20,1.8117
mp-555333,LiMnFeF6,2.3723
mp-555498,Ba3ErMn2O9,0.0
mp-556233,KAs4ClO6,3.1587
mp-557424,BaV(AsO4)2,2.4743
mp-557506,Na3Ca2BiO6,1.5639999999999992
mp-557809,SbSCl9,1.7743
mp-558724,La2SiS5,2.3563
mp-558956,K2VPO6,3.3922
mp-559032,GdMoClO4,2.5046
mp-560167,KV3Cd4O12,2.3544
mp-560665,LaPb6BrO7,1.9727000000000001
mp-561062,NaSb3(PO5)2,3.8527
mp-561360,Ca51W12N56O3,1.709499999999999
mp-561845,YbAu2F9,0.0
mp-565447,ThV4O12,2.4803
mp-567185,SnHg6(As2Br3)2,1.3638
mp-567598,Dy7(TeIr)2,0.0
mp-567614,Tb2Co2I,0.0
mp-567694,La2C2Cl,0.0
mp-567712,PrCoGe,0.0
mp-567787,LiInAg2,0.0
mp-567978,Pa3P4,0.0
mp-568053,Tb4Ga12Pt,0.0
mp-568419,Mg3Ir,0.0
mp-568437,Yb2Zn17,0.0
mp-568456,Tb2(GePt3)3,0.0
mp-568847,K4GeSe4,2.0003
mp-569128,SiB3,1.4934
mp-569577,Tb(SiAu)2,0.0
mp-570,NdTe,0.0
mp-570351,Na2Sn3Au,0.0
mp-570965,Pr6CoBr10,0.09920000000000001
mp-571261,Pu,0.0
mp-571626,Mg3Ga7Co2,0.0
mp-573145,CsGa3S5,2.635
mp-573743,Ce3CI5,0.0
mp-580930,YGe2Ir,0.0
mp-582055,La7Ni16,0.0
mp-582185,Cs12Nb(In2As3)3,0.809999999999999
mp-582767,La3CuGeS7,1.8377999999999992
mp-585184,Mo2P3O13,0.8328
mp-622209,Al3Ni,0.0
mp-628664,Ce2P3Au,0.0
mp-637222,Gd2AlCo2,0.0
mp-640447,Ce5NiPb3,0.0
mp-641699,CsNb2PS10,1.5390000000000001
mp-646337,Tb2EuSe4,0.19619999999999901
mp-647218,Re2P2O11,0.5972000000000001
mp-649213,Th6FeBr15,0.0
mp-649419,Sr2(PPd)3,0.0
mp-6544,LuNi2B2C,0.0
mp-669410,K2Mn(SnSe3)2,0.8791
mp-6712,NaLuGeO4,3.6432
mp-672325,TbIn2Ni,0.0
mp-672680,Zr6Co16Si7,0.0
mp-674712,Ca(La2Se3)4,0.0
mp-680742,GdP5,0.040900000000000006
mp-685318,Bi15AsO25,2.3058
mp-704707,Cr2(MoO4)3,2.8122
mp-7317,Sm5Co2,0.0
mp-744580,ErCrHO5,2.4551
mp-755752,Rb2Be2O3,2.2055
mp-759651,ScH6Br3N2,3.0567
mp-7598,NbAs2,0.0
mp-768712,Li4MnCrO6,1.0619
mp-775489,CrP6(WO8)3,2.0681
mp-777049,LiFeBO3,3.1611000000000002
mp-782,Te2Pd,0.0
mp-7973,RbNdO2,3.4692
mp-8580,Ca(PRh)2,0.0
mp-8607,Na(Cu2Sb)2,0.0
mp-8608,K(Cu2As)2,0.0
mp-861878,Cd2AgRh,0.0
mp-864599,TbSnAu2,0.0
mp-864607,ZrCdPd2,0.0
mp-864637,NdAl,0.0
mp-864670,Ta2VOs,0.0
mp-864784,LiSnRh2,0.0
mp-864907,MgZrPd2,0.0
mp-865098,NaLaAu2,0.0
mp-865142,DyMgZn2,0.0
mp-865325,Lu2CoRu,0.0
mp-865368,Tm2NiOs,0.0
mp-865442,TiAlOs2,0.0
mp-865451,Tm2MnOs,0.0
mp-865607,LuGaPd2,0.0
mp-865737,Li2InSn,0.0
mp-865764,YbGdRh2,0.0
mp-865794,LaYbHg2,0.0
mp-865802,LuRh3,0.0
mp-865841,YbPaPt2,0.0
mp-865918,Yb2CdSn,0.0
mp-865924,LiZrAu2,0.0
mp-866064,NdMgAu2,0.0
mp-866107,Ac2IrPd,0.0
mp-866189,CeCd2,0.0
mp-866306,Ba(NdS2)2,1.642999999999999
mp-866501,CsGe,1.2037
mp-867251,LiZn2Pt,0.0
mp-867278,DyPaTc2,0.0
mp-867319,Al2CoIr,0.0
mp-867338,AcCdAg2,0.0
mp-8977,Ca2PN3,2.7371
mp-9028,PrBN2,2.3193
mp-9235,LaNiSb,0.0
mp-9264,NaTeAu,0.0
mp-9277,Ce2CrN3,0.0
mp-941,Ni5As2,0.0
mp-972246,Tb2ReC2,0.0
mp-973089,ScTaFe2,0.0
mp-973906,LuGe2,0.0
mp-975920,PrSmTl2,0.0
mp-976076,NaAc2Sn,0.0
mp-977390,Ta3Ru,0.0
mp-977400,ErInRh2,0.0
mp-977535,ErAlAg2,0.0
mp-977580,MgSc2Al,0.0
mp-978090,PrGeRu,0.0
mp-978929,SrAcZn2,0.0
mp-979115,Ti2Ag,0.0
mp-980197,YbErPt2,0.0
mp-980752,Sm3Co,0.0
mp-980936,Y5(In2Pd)2,0.0
mp-984698,Ca3Pt2,0.0
mp-984768,DyHoIr2,0.0
mp-984788,Ba4Er(RuO4)3,0.0
mp-989573,Rb2BrCl6F,1.239
mp-994,YP,0.0
mp-1003314,KMn2O4,0.349299999999999
mp-10133,Sc3BPb,0.0285
mp-1017556,CuNi3N,0.0
mp-10191,Lu2MgSe4,1.6543
mp-1025161,InPPd5,0.0
mp-1025262,Sm2Fe2Si2C,0.0
mp-1029899,Ca5(OsN3)2,0.0
mp-1051,ErNi3,0.0
mp-1067236,CdPt3,0.0
mp-1068587,YSi3Ir,0.0
mp-1069296,Eu3InO,0.0
mp-1069297,Tb2AlNi2,0.0
mp-1072598,ErCdNi4,0.0
mp-1077392,TmCuGe,0.0
mp-1078876,ErSnIr,0.0
mp-1079085,LuInPd,0.0
mp-1079097,ErMgAg,0.0
mp-1079103,LaCuSb2,0.0
mp-1080127,YbCdPb,0.0
mp-1080149,Yb(CuS)2,1.0845
mp-1080424,ScAgGe,0.0
mp-1080665,ScPIr,0.0
mp-1080835,V2GaC,0.0
mp-1084767,Zr2InN,0.0
mp-1084815,Nd(SiPt)2,0.0
mp-1095120,PrPdPb,0.0
mp-1095532,VSiNi,0.0
mp-1100806,Zr8Sc2O19,2.9941
mp-1101783,Bi2Ir,0.0
mp-1102319,Lu2Pt,0.0
mp-1102841,HfGeIr,0.0
mp-1103028,Ba2Pd,0.0
mp-1103508,Sr3MgTa2O9,3.282
mp-1104417,La5Ru2,0.0
mp-1104500,Sm5Ir2,0.0
mp-1104675,Tm3Pd4,0.0
mp-1106122,Pr3Ni,0.0
mp-1112448,K2ScAgCl6,3.2762000000000002
mp-1112544,Cs2TlAsI6,0.9989000000000001
mp-1112689,Cs2KTmCl6,5.258599999999999
mp-113,Tc,0.0
mp-1175419,Li9Co7O16,0.09129999999999901
mp-1179211,SrCrP2O7,0.0356
mp-1183074,Ac2MgGa,0.0
mp-1183136,Al2OsRh,0.0
mp-1183453,Ca2TlHg,0.0
mp-1184025,Eu2MgIn,0.0
mp-1184055,GaFeRu2,0.0
mp-1184074,DyTmRu2,0.0
mp-1184376,EuErTl2,0.0
mp-1184477,GdCdAg2,0.0
mp-1185452,Lu2CuAu,0.0
mp-1185484,LiPmIn2,0.0
mp-1186002,MnTc2Sb,0.0
mp-1186454,Pm2CuNi,0.0
mp-1187092,Sr2MgTl,0.0
mp-1188065,ZrCoH3,0.0
mp-1188388,Er6NiI10,0.7620999999999991
mp-1188425,NpB4,0.0
mp-1189057,LuGePd2,0.0
mp-1189434,Nd(LuS2)3,1.034799999999999
mp-1189927,EuZrS3,0.0
mp-1190043,TlCr3Se5,0.0
mp-1190970,Dy3ReB7,0.0
mp-1191026,YPS,0.551099999999999
mp-1191314,Y2Ni12As7,0.0
mp-1191641,YVB4,0.0
mp-1191944,S4I2O15,2.388699999999999
mp-1192754,CsBaVS4,1.6443999999999992
mp-1193015,CsVOF4,3.546599999999999
mp-1193331,CsHoSiS4,2.928499999999999
mp-1193886,Zr4Ir2N,0.0
mp-1194082,Ni6W6C,0.0
mp-1194142,CsTbSiS4,2.8943000000000003
mp-1194179,Pr(Sn2Rh)2,0.0
mp-1194326,CsTmSiS4,2.9972000000000003
mp-1194401,Sr5(SnAs3)2,0.087899999999999
mp-1194518,V2Se2O9,2.2644
mp-1195229,SbXeF11,1.827999999999999
mp-1196350,InSb(P2O7)2,2.9874
mp-1197583,Lu5(Ge5Rh2)2,0.0
mp-1197725,Y2Fe3Si5,0.0
mp-1198318,Ho3Co4Ge13,0.0
mp-1198736,NdCd11,0.0
mp-1198756,Nd3InS6,0.9540999999999991
mp-1199692,YbCo5P3,0.0
mp-1199840,Cs5As(PSe3)4,1.4867
mp-1199912,Ce(Zn10Ir)2,0.0
mp-1200470,Ca3Co4Sn13,0.0
mp-1200765,Sc2Nb3Si4,0.0
mp-1201047,Dy4BClO7,4.7517
mp-1201125,Eu4Lu(SnS4)3,0.0
mp-1201411,SmSn3Ru,0.0
mp-1201558,ZrFeGe2,0.0
mp-12020,ErAl4Ge2Au,0.0
mp-1202754,Ho3C4,0.0
mp-1202806,MgHAu2F11,1.696099999999999
mp-1203502,KTi4Cl11,0.0
mp-1205473,Zr5AgPb3,0.0
mp-1205563,Ho2MgCu2,0.0
mp-1205879,PrCdAu,0.0
mp-1205940,HoMgAg,0.0
mp-1206327,Th2NiC2,0.0
mp-1206617,Er7(TeIr)2,0.0
mp-1206624,Sm2CdNi2,0.0
mp-1206909,CaBPd3,0.0
mp-1206922,Ce3SnN,0.0
mp-1206935,Tm6FeBi2,0.0
mp-1207169,CaH3Pd,0.0
mp-1208905,Sm2(Al3Rh)3,0.0
mp-1209040,Sm3Sc2Al3O12,3.9934000000000003
mp-1209114,RbTm(MoO4)2,3.0665
mp-1209329,PrVO3,1.301599999999999
mp-1209359,RbLu(WO4)2,3.3628
mp-1209464,Rb8Zr6BBr20,0.08999999999999901
mp-1209629,RbHo(MoO4)2,3.6246
mp-1209720,Pr4MgIr,0.0
mp-1209743,Pr3RuBr3,0.19180000000000003
mp-1209932,Nd3Si6N11,3.081699999999999
mp-1209944,Nd3(Al3Ru)4,0.0
mp-1210153,Nb3(Ni10B3)2,0.0
mp-1210185,Na4Y2(IrO4)3,0.0
mp-1210703,Mg3Pd5,0.0
mp-1211043,LiFeBr4,0.934099999999999
mp-1211045,LiGd2RuO6,0.19870000000000002
mp-1211304,Lu6Ti4Al43,0.0
mp-1211404,La5Pb3Cl,0.0
mp-1211413,KMo2(P2O7)2,1.1192
mp-1211431,LaCu5Sn,0.0
mp-1211438,La4CdPd,0.0
mp-1211624,K4ZrO4,2.9092000000000002
mp-1212379,Ho2Sc3Si4,0.0
mp-1212463,Hf7Au10,0.0
mp-1212479,Hf9Mo4Se,0.0
mp-1212892,Dy4CdIr,0.0
mp-1212939,Dy4CdPd,0.0
mp-1213270,CsNd(MoO4)2,3.7052
mp-1213336,Er6Co2Sn,0.0
mp-1213686,CsCr(MoO4)2,3.176599999999999
mp-1213792,CeAl4Pd,0.0
mp-1213909,CeTl2(PO3)5,0.081999999999999
mp-1213982,Cd(GaCl4)2,3.750499999999999
mp-1214436,Ba8Dy3(Pt2O9)2,0.0
mp-1214995,Cs2Mo3P3O17,2.2994
mp-1215709,YZrFe4,0.0
mp-1216020,Zn35Cu17,0.0
mp-1216054,Y3GeS2,0.0
mp-1216365,Y14Ag51,0.0
mp-1216536,TmPaO4,2.6791
mp-1216876,TiGaNi6,0.0
mp-1216878,U3Ni3(SnSb)2,0.0
mp-1217433,TbUTe4,0.0
mp-1217710,Tb2FeCo3,0.0
mp-1217898,TaTiB4,0.0
mp-1218503,Sr8RuRh3O16,0.0
mp-1219419,Sc5P12Ir19,0.0
mp-1219700,Sc2Mn12GaGe11,0.0
mp-1219716,PrNd,0.0
mp-1219784,Rb2Ti(WO4)3,2.747
mp-1220678,Nb2Pd,0.0
mp-1223161,La6ZnSb15,0.0
mp-1223249,La2(TlSn)3,0.0
mp-1223632,KNa2WN3,2.029499999999999
mp-1224047,K2(NbSe2)3,0.0
mp-1224063,K4Ba2SnAs4,0.49249999999999905
mp-1224173,HfZn2Ga,0.0
mp-1224791,GaNi2Pt,0.0
mp-1224937,GdYCo4,0.0
mp-1225008,Gd2InSbO7,2.407399999999999
mp-1225463,Dy2As7Rh12,0.0
mp-1226355,Cr2Rh2C,0.0
mp-1226424,Cs3Er5(PS4)6,2.2701000000000002
mp-1226573,CeU4N5,0.0
mp-1226767,Ce2CoRu3,0.0
mp-1226771,CdAg2Sn3S8,0.2717
mp-1227114,Ca7TlN4,0.0
mp-1227444,BiPbBrO2,1.7955
mp-1228125,BaCdPb,0.0
mp-1228156,Ba2(AlAg)5,0.0
mp-1228711,Ba10IBr4N5,1.1374
mp-1229162,Ba(Cr5S8)2,0.0
mp-123,Nd,0.0
mp-1244815,TaTi(PO4)3,2.8341000000000003
mp-1247465,Ba3Fe3N5,0.0
mp-12647,TbNbO4,3.5286
mp-12670,Ho2SO2,3.1381
mp-1271278,Zn3SbN3,1.3801
mp-12735,KAg2,0.0
mp-12754,ThPt,0.0
mp-12962,Zr6FeSb2,0.0
mp-1314584,KMnSn3O8,1.235
mp-13380,HoZnRh,0.0
mp-13466,Sm(SiAu)2,0.0
mp-13505,CeMg2Ni9,0.0
mp-1352,ZrN,0.0
mp-1395,VRu,0.0
mp-1405,TbGe,0.0
mp-14210,LiGdGe,0.0
mp-14422,Ca(AlS2)2,3.5321
mp-146,V,0.0
mp-15021,Ba3Ta5O15,0.0
mp-15204,Tb2Si5Ni3,0.0
mp-15380,Sb9Se4F39,1.9538000000000002
mp-15588,Ce(BRu)2,0.0
mp-15727,La(P3Ru)4,0.0
mp-15743,Sr2CeO4,2.2917
mp-15821,LiNdGe,0.0
mp-15846,Lu5SbPd2,0.0
mp-15963,HfPRu,0.0
mp-16160,Sm4Au2O9,2.0229
mp-16259,Ca(GeIr)2,0.0
mp-16645,SmMgPt,0.0
mp-16814,KTh2V3O12,3.3167
mp-16861,Na5GeAs3,0.48589999999999905
mp-17224,Cu(PO3)2,0.0
mp-17235,Sm2Si2O7,5.0924
mp-17337,RbAsOF4,3.7453000000000003
mp-17387,LiVAsO5,1.7409999999999992
mp-17388,Yb3Cu6Sn5,0.0
mp-17706,Zr5Ge3,0.0
mp-18164,Tb3S3N,1.409399999999999
mp-18224,Rb6Ge2O7,2.8449
mp-18414,BaLa2BeO5,3.8698
mp-18450,Lu(FeGe)6,0.0
mp-18542,Nd2SiTeO4,2.3698
mp-18601,DyMn2O5,1.2375
mp-19023,YbCrO4,2.3346
mp-19213,Ba2Mn2Sb2O,0.010299999999999001
mp-19248,BaSm2CoO5,1.578999999999999
mp-1967,TaTe2,0.0
mp-19905,Co2Si,0.0
mp-19924,USeS,0.0
mp-20038,Eu(CoP)2,0.0
mp-201,Yb5Sb3,0.0
mp-20223,Mn2GeO4,1.0937000000000001
mp-20353,GdGa,0.0
mp-20399,Ba2MnMoO6,1.369599999999999
mp-20436,TaSiRh,0.0
mp-20452,Ba(MgPb)2,0.0
mp-20819,ErGePd2,0.0
mp-20881,LaNiBN,0.0
mp-20937,Cr3C2,0.0
mp-21222,Sm2InGe2,0.0
mp-21229,Eu(SiAu)2,0.0
mp-21308,TbInPd,0.0
mp-21483,Nd3In,0.0
mp-21647,CeGePd,0.0
mp-21895,Na15Pb4,0.0
mp-22244,GdCrO4,0.0
mp-22259,Yb2Ru2O7,0.0
mp-22262,CoMoP,0.0
mp-22292,EuCuSb,0.0
mp-22497,HoSiRu,0.0
mp-22548,Th2CoB10,0.0
mp-22619,NiP2,0.0
mp-22703,Ni8Ge2B3,0.0
mp-22850,RuCl3,0.0
mp-2315,NaB15,0.0
mp-23283,Sm4Bi3,0.0
mp-23409,Pr12C6I17,0.0
mp-2343,Mg2Sn,0.0
mp-24011,CeHSe,0.0
mp-2422,ErGa2,0.0
mp-2473,Re3As7,0.0
mp-24741,ScH3NCl3,3.846899999999999
mp-26139,LiCrP2O7,2.7333
mp-2658,AlFe,0.0
mp-2696,MgAg,0.0
mp-27292,Hg3As2F12,2.6377
mp-27441,Au2Se4O11,1.5070000000000001
mp-27485,Tc2O7,2.6726
mp-27561,Rb9O2,0.0
mp-27677,KCu4S3,0.0
mp-27805,Ba3SiS5,2.8128
mp-2800,USi3,0.0
mp-28127,Na2S5,1.7969
mp-28134,Ba2As2S5,1.3721
mp-28543,Cs4ZrO4,2.7504
mp-28577,RbBrF4,3.4059
mp-28601,NbBr5,1.5583
mp-2884,Cs2Mn3S4,0.41910000000000003
mp-28861,CsC8,0.0
mp-28970,Nd2NCl3,3.562599999999999
mp-29000,Na3B5S9,3.506299999999999
mp-29019,Rb3IO,0.6342999999999991
mp-2914,LaSi3Ir,0.0
mp-29334,K2PuCl5,0.1145
mp-2967,La(CoB)2,0.0
mp-30305,Sr11Bi10,0.0
mp-30309,Y2Au5F21,1.7812000000000001
mp-30429,Ba8Ga7,0.0
mp-30686,Zr2Ga3,0.0
mp-30732,HoTlPd,0.0
mp-30743,TmIr2,0.0
mp-30749,Zr5Ir3,0.0
mp-31075,Hg3(SeBr)2,1.3327
mp-31321,La(C2N3)3,3.565
mp-31387,ErGaPd,0.0
mp-31479,Ca3(GaPt)2,0.0
mp-3191,Ho(FeSi)2,0.0
mp-3210,Ca(CoP)2,0.0
mp-32689,Pr2Se3,1.425999999999999
mp-3324,Nb2SnO6,1.7927
mp-3747,Ti3AlC2,0.0
mp-3927,CaAsAu,0.503699999999999
mp-3950,ErInCu,0.0
mp-4090,Ce(SiRh)2,0.0
mp-414,LuSe,0.0
mp-4469,Tm(SiNi)2,0.0
mp-4488,Sr(FeAs)2,0.0
mp-4508,ErInPd,0.0
mp-4618,Rb2SeO4,3.6558
mp-4742,Ho(GePd)2,0.0
mp-4768,Eu(SiNi)2,0.0
mp-4807,AgAsF7,0.1728
mp-4982,SmBRh3,0.0
mp-505502,Ce(PRh)2,0.0
mp-510430,Li13In3,0.0
mp-5106,TbCoC2,0.0
mp-530524,Zr3TlF15,3.4196
mp-531195,Sr2NF,1.2984
mp-531553,Li5GeN3,1.3384
mp-5403,Rb2TiO3,3.8829000000000002
mp-541201,TlCuPO4,0.052099999999999
mp-541553,La10Os2I15,0.0
mp-542070,Mn(NO3)2,2.7614
mp-5429,Tb(SiOs)2,0.0
mp-543039,TePbO3,3.0439
mp-545481,Ca2Cu(BrO)2,0.0
mp-5473,CaMgSi,0.0159
mp-549709,ErBi2ClO4,1.4576
mp-550763,CoSb2Br2O3,1.6289
mp-554605,Rb2SbCl3F2,3.008699999999999
mp-554787,RbMoIO6,2.6165000000000003
mp-555376,CsAu(SO4)2,1.588899999999999
mp-555681,La3CuS3O2,0.9983999999999991
mp-555747,Lu2WO6,3.6599
mp-555904,NaSmGeO4,3.616
mp-556402,CuAg5As3O11,0.0
mp-556533,Sr2V3BiO11,2.8434
mp-5566,KCuF3,0.0
mp-556889,Ca4Al6MoO16,3.7053000000000003
mp-557417,As2Cl3OF5,3.3
mp-558130,MnBiS2Cl,0.8788
mp-558378,Pd3S,0.0
mp-559043,KLaGeS4,2.3093
mp-559138,Ba2Zn(BO3)2,3.332799999999999
mp-559213,CsIn3O5,1.479099999999999
mp-559539,Li2U3P2O15,2.2678000000000003
mp-559998,Cs(OsO3)2,0.0
mp-560156,SrTlVO4,3.2775
mp-560356,Sm3Si2S8I,2.5736
mp-560605,LiLa4AuO8,1.741099999999999
mp-560921,NaAlAs2O7,2.7509
mp-561635,CsSmSiS4,2.9417
mp-562338,USeO6,2.0169
mp-562541,Cs2Na3TlO4,1.4562
mp-5628,K(RuO2)4,0.0
mp-5632,DyAsO4,3.6528
mp-567329,CrHg6As4Br7,0.24829999999999902
mp-567554,Ce2(Al5Ru)3,0.0
mp-567889,TiGe2,0.0
mp-568497,EuCu9Sn4,0.0
mp-569116,Sc2B6Rh,0.0
mp-569141,Lu11Te4,0.0
mp-569352,NdTl3,0.0
mp-569521,Ce2Ni12P7,0.0
mp-569607,Pr(GeRu)2,0.0
mp-569617,Ca3Zn2(CuP2)2,0.07010000000000001
mp-569744,UAl2,0.0
mp-570271,Ti4FeBi2,0.0
mp-570308,Eu(NiSb)2,0.0
mp-5704,Tl3AsS4,1.7009
mp-571190,GaHg2SbCl4,0.742499999999999
mp-573114,Gd3CuGeS7,1.145499999999999
mp-574138,Cs2Te3As,0.8398999999999991
mp-5752,Tb(SiIr)2,0.0
mp-581443,Cs2UMoO7,1.9349999999999992
mp-582774,Ce4MnSe6O,0.0
mp-600124,MnNiSb,0.0
mp-605650,Ba5Ga5Pb,0.0
mp-607853,Na8In6Au11,0.0
mp-611062,EuSb2,0.0
mp-616458,Cs2CO3,3.3306
mp-616559,Ti2S,0.0
mp-6228,Na2TiGeO5,3.242
mp-6244,HoCuPbSe3,1.2757
mp-6332,Li2TiSiO5,3.3863
mp-640321,CsNa2Ge17,0.0
mp-643439,BaMg2H8Os,2.3653
mp-645208,Sr2Co2O5,0.0
mp-652044,Ce10Se19,0.0
mp-6575,Ba4Na(BO3)3,3.9839
mp-662543,Cu(NO3)2,0.6831
mp-670677,Ce5(In2Pt)2,0.0
mp-673255,Cu9Se8,0.0
mp-680498,RbTaPS6,1.7240000000000002
mp-680502,La10Ga5Br4,0.0
mp-680756,Na4TiP2O9,2.8289
mp-683,Pr2C3,0.0
mp-685944,Eu2Zr2O7,0.0
mp-6914,CaGa,0.0
mp-704408,K8V2(S2O9)3,1.987699999999999
mp-720856,KCa(H2N)3,2.1995
mp-7212,CsSmHgSe3,1.362299999999999
mp-722890,Li3H6Ir,3.069
mp-722900,CaH3NO5,3.412099999999999
mp-723,Cr23C6,0.0
mp-7239,PrMgGa,0.0
mp-752849,Y2Pb2O7,1.208799999999999
mp-764295,Na4(NiO2)9,0.5941999999999991
mp-768313,Dy2TeO6,3.0226
mp-772191,Tm2TeO6,3.091899999999999
mp-8119,PrCuSi,0.0
mp-8181,Li2CeN2,1.287399999999999
mp-825,RuO2,0.0
mp-8287,SmCuP2,0.0
mp-8396,CsEuF3,0.0
mp-840,SmRh2,0.0
mp-849304,Na4MnO4,0.6495999999999991
mp-8539,SrSnP,0.0
mp-862289,AcHg3,0.0
mp-862371,Sc2RuPt,0.0
mp-862604,Re3Ni,0.0
mp-862679,TaZn2,0.0
mp-862756,PrGa3,0.0
mp-862931,ErSnRh2,0.0
mp-862932,ThInAg2,0.0
mp-862955,PmSbRh2,0.0
mp-862970,PmTl3,0.0
mp-863709,Ir3Rh,0.0
mp-863721,Pm2IrPt,0.0
mp-864666,Nd3SiAgS7,1.839499999999999
mp-864672,NbSiTc2,0.0
mp-864791,PaAgTe2,0.0
mp-864831,NbZnRh2,0.0
mp-864932,Mg2AgPt,0.0
mp-865006,Dy2MgAl,0.0
mp-865038,HfTaTc2,0.0
mp-865201,LuNi5Sn,0.0
mp-865284,Tm2CdOs,0.0
mp-8655,SmSiRu,0.0
mp-865515,YMgZn2,0.0
mp-865591,Ti2NiMo,0.0
mp-865595,Lu2CuRu,0.0
mp-865661,YbMgCd2,0.0
mp-865663,YbLuRh2,0.0
mp-865733,CoTc3,0.0
mp-865847,Lu2CuPt,0.0
mp-867172,SrMgTl2,0.0
mp-867373,Ti2Co12P7,0.0
mp-867813,LiLa2Os,0.0
mp-867918,ErPaRu2,0.0
mp-872,BaSn,0.0
mp-9036,KSmTe2,1.3181
mp-9463,ZrGeSb,0.0
mp-977558,MgPaRu2,0.0
mp-977572,Hf2MnRh,0.0
mp-978833,SmYIn2,0.0
mp-979950,AcYbMg2,0.0
mp-9824,Ho2Se3,1.348199999999999
mp-9847,YbP5,0.0
mp-985296,Ag3Pd,0.0
mp-9884,KFeSe2,0.0
mp-989637,BaReN3,1.8284999999999991
mp-9939,Hf2Ge,0.0
mp-9981,Mn2N,0.0
mp-1001613,LuGa,0.0
mp-1009545,PaN,0.0
mp-1016106,HfZn16,0.0
mp-1018028,TiS,0.0
mp-1018094,BaGaSnH,0.18730000000000002
mp-1018144,LaH3,0.0
mp-1018152,LuAu2,0.0