material_id,pretty_formula,band_gap
mp-865122,NaNdTl2,0.0
mp-865144,CdAu3,0.0
mp-865159,Dy2AlZn,0.0
mp-865366,YbCd3,0.0
mp-865578,LiNd2Ga,0.0
mp-865596,YLu3,0.0
mp-865735,Li2YbGe,0.0
mp-865779,Ga2CoRu,0.0
mp-865781,YbCeZn2,0.0
mp-865986,Li2CaGe,0.0
mp-866017,LiNd2Al,0.0
mp-867516,Ba2Tb2Mn4O11,0.0
mp-867994,Li6Mn9O20,0.0
mp-937760,C,0.43049999999999905
mp-971827,Zn2CuPt,0.0
mp-972084,TbMn12,0.0
mp-972119,SrCaTl2,0.0
mp-972352,YbMg,0.0
mp-972416,Tm3Lu,0.0
mp-972420,YErAg2,0.0
mp-974395,Pt3Rh,0.0
mp-975522,NdLuTl2,0.0
mp-975780,Li2TlSn,0.0
mp-975793,PrTmTl2,0.0
mp-976254,Li3Mg,0.0
mp-976322,Li3Pt,0.0
mp-978517,SmCdPd2,0.0
mp-979001,SmAs2Au,0.0
mp-979428,YEr4Al15,0.0
mp-980942,YTmMg2,0.0
mp-981544,Pr,0.0
mp-985468,Er2Ga8Co,0.0
mp-9868,KCu3S2,0.47800000000000004
mp-9985,NbNiB,0.0
mvc-9927,CaHoTi2O6,0.0
mp-1001022,Cu2PPd2,0.0
mp-1006223,GdB12,0.0
mp-1018116,NbInSe2,0.0
mp-1018693,Eu2H3Cl,0.0811
mp-1019896,La5S4NO2,1.4261
mp-10436,Tb(AlSi)2,0.0
mp-1064367,BaPd,0.0
mp-1077263,TiS2,0.0
mp-1078420,ZnCu2GeTe4,0.0
mp-1078457,Ba2ZrTiO6,2.2161
mp-1078586,UGaCo,0.0
mp-1078782,YCoSi2,0.0
mp-1078813,YZnPd,0.0
mp-1078858,U3Si,0.0
mp-1078903,SrZnSbF,0.0
mp-1079643,TaMnGe,0.0
mp-1080094,SrHg3,0.0
mp-10816,NdAgAs2,0.0
mp-1084828,La3Al,0.0
mp-1094087,Sr10Fe10O29,0.0
mp-1094310,SrMg2,0.0
mp-1094951,Mg5Cd,0.0
mp-1096810,Al2ZnS4,3.124
mp-1101431,RbLiMn3O4,0.6170999999999991
mp-1102977,GaAsO4,3.084899999999999
mp-1103465,TiBe3,0.0
mp-1103541,Lu2Ga8Co,0.0
mp-1103561,Er2MgSe4,1.364299999999999
mp-1104046,Tb3Se2NO,2.0437
mp-1104290,Ti3H3Au,0.0
mp-1104320,Ti4GaS8,0.0
mp-1104709,Sm(MnSn)6,0.0
mp-1104777,Gd3SbO3,0.206599999999999
mp-1105466,Dy2SnAu2,0.0
mp-1106237,DyAl3,0.0
mp-1111571,K2TlRhF6,2.0029
mp-1112000,Cs2ScTlCl6,3.61
mp-1113019,Cs2LiCeF6,0.6874
mp-1113035,Cs2KPrI6,3.260399999999999
mp-1113453,Cs2PrAgF6,3.3116
mp-11228,YAl,0.0
mp-1147591,Li6Zn3(PS4)4,2.692999999999999
mp-1147605,Li6Zn3(PS4)4,2.6774999999999993
mp-1147694,Li10Zn(PS4)4,2.698899999999999
mp-1147695,Li10Zn(PS4)4,2.7281
mp-1147698,Li10Zn(PS4)4,2.7306
mp-11527,Tm2Ni17,0.0
mp-1176890,Li7Fe8(BO3)8,1.9667000000000001
mp-1179147,VH10SO10,3.4583
mp-1180754,Na3Sr4Cr5F26,3.2949
mp-1181237,HfAlPt,0.0
mp-1183198,Ba2CdSn,0.0
mp-1183421,Be2NiRu,0.0
mp-1183557,CaSmMg2,0.0
mp-1183634,CdAgAu2,0.0
mp-1183826,DyLuCd2,0.0
mp-1183887,Eu2BiAu,0.0
mp-1184101,Er2TlHg,0.0
mp-1184345,ErLuRh2,0.0
mp-1184691,Ho2AgHg,0.0
mp-1184789,InHg3,0.0
mp-1185316,LiGa2Co,0.0
mp-1185821,Mg2NiH4,1.2689
mp-1185980,MgSnRu2,0.0
mp-1186003,MnZnAu2,0.0
mp-1186200,Nb2CrRu,0.0
mp-1186343,NdGdHg2,0.0
mp-1186667,PmYCu2,0.0
mp-1186689,Pr2MgAl,0.0
mp-1186932,Sc2AgPt,0.0
mp-1187329,TbDyIr2,0.0
mp-1187357,TbLuRh2,0.0
mp-1187567,TmRh3,0.0
mp-1187801,Y3Lu,0.0
mp-1187836,YCdRh2,0.0
mp-1187871,YTmAg2,0.0
mp-1187952,ZnAg3,0.0
mp-1188304,Ba2SmInSe5,1.0793
mp-1189064,Ce(ErS2)3,0.0
mp-1189214,Y2MnCrO6,0.0
mp-1190528,Ba2ZnSe3,1.6214
mp-1190542,TbSi3Ni8,0.0
mp-1190778,Zn3As2(H2O3)4,2.9314
mp-1191127,LiCr(WO4)2,2.468499999999999
mp-1191903,Li2In2SiS6,2.1156
mp-1191962,CdIClO3,3.396499999999999
mp-1193017,Gd6Zn23,0.0
mp-1193217,Lu6Cu23,0.0
mp-1193252,RbPPbS4,2.3399
mp-1193711,Cs2HgCl4,3.0536
mp-1195358,Ho2SeOF2,2.881499999999999
mp-1195753,Yb(Al10Cr)2,0.0
mp-1196241,SrBe(HO)4,3.9543
mp-1197501,Bi6Se3(BrO7)2,3.080899999999999
mp-1199242,Pb(IO3)2,3.078
mp-1200758,Ba3V2(SeO4)4,2.6992000000000003
mp-1200897,Ho4GaSbS9,2.3432
mp-1201497,Bi2Pd(SeO3)4,1.7692
mp-1201646,LaGaS3,2.1506
mp-1202260,Lu2Ni17,0.0
mp-1203633,Sm6Al43Cr4,0.0
mp-1203758,La6InCo13,0.0
mp-1204994,H4Pd(NO4)2,1.5758
mp-1205514,Ba2PuTaO6,0.0
mp-1206685,NdNiAs,0.0
mp-1207153,Gd3GaC,0.0
mp-1207575,YbCoGe,0.0
mp-1207633,YSiIr2,0.0
mp-1207897,Y2Hf2(MoO4)7,3.2031
mp-1207973,UGaAu,0.0
mp-1208626,SrRhO3,0.0
mp-1208790,Tb23Cd4Rh7,0.0
mp-1210094,NaAs4IO6,2.4551
mp-12107,TiPt3,0.0
mp-1210782,LuCo4B,0.0
mp-1211572,KZr6CI14,0.016
mp-1212365,Li12Ge7,0.0
mp-1212392,Ho2AlGe3,0.0
mp-1212521,GdSBr,1.6637
mp-1212679,Gd3W(ClO2)3,2.5352
mp-1212967,Er16In4Ir4O,0.0
mp-1213434,CuP4(RuO7)2,0.0
mp-1214141,Ca3Sn13Pt4,0.0
mp-1214478,Ba4Sm(CuO3)3,0.0
mp-1215411,ZnIn2SnAs4,0.32430000000000003
mp-1215452,ZnSnSb2,0.0
mp-1215565,Zn2GaCuTe4,1.1792
mp-1215860,Yb(LuSe2)2,1.142
mp-1215983,YThCo10,0.0
mp-1216467,Yb20Zn30Ge31,0.0
mp-1216511,V9GaSiGe,0.0
mp-1216880,TiCrCuSe4,0.0
mp-1216929,Tm5Co19P12,0.0
mp-1217119,Ti2MnNiO6,2.2455
mp-1217366,Ti2Nb2Ni2C,0.0
mp-1217390,Th2Fe17C,0.0
mp-1217672,Tb2ZnCu,0.0
mp-1217787,SrSmMn2O6,0.0
mp-1217863,Tb(InCu)6,0.0
mp-1217997,Ta3AlB8,0.0
mp-1218092,Ta2NbTeI7,0.4399
mp-1218321,Tb20In40Ni19,0.0
mp-1218336,SrCaZn2,0.0
mp-1218438,Sr3Nd(FeO4)2,0.0
mp-1218808,Sr2La(FeO3)3,0.0
mp-1219016,Sn2PbSe3,0.19290000000000002
mp-1219173,Sm4EuS5,0.0
mp-1219273,Sm8Al53Si17Ru12,0.0
mp-1219479,Sb4Se3SI4,1.3956
mp-1219497,Sc(Fe5Si)2,0.0
mp-1219756,Rb2Ti(TeO4)3,1.524
mp-1219782,Rb2CuBrCl3,0.3534
mp-1219831,Rb(Cr5Te8)3,0.0
mp-1219920,PdAu,0.0
mp-1219926,Pb2SeS,0.541199999999999
mp-1220083,Ni9(SnS)2,0.0
mp-1220155,NdAlSi,0.0
mp-1220597,Nb3SnH2,0.0
mp-1221137,Na4SeS,2.667399999999999
mp-1221396,Na(NbSe2)2,0.0
mp-1221777,MnCd4S5,0.0
mp-1221860,Mn2SiNi2Ge,0.0
mp-1222191,Mn4Cr(GaCo2)5,0.0
mp-1222483,LiBi3(BrO2)2,2.3773
mp-1222542,LiIn2CuTe4,0.581399999999999
mp-1222587,Li5TlIn,0.0
mp-1222616,Li2TlHg,0.0
mp-1222726,Li(TiTe2)2,0.0
mp-1222785,LaNdAl4,0.0
mp-1222860,Li7Mn(BO3)3,0.0413
mp-1222951,LaGd3(BrO)4,2.8695
mp-1223064,La3Gd(ClO)4,3.139599999999999
mp-1223069,La4Se7S,0.1486
mp-1223072,La4BrCl3O4,3.9516
mp-1223136,La8(BiPb)3,0.0
mp-1223196,La5Al15Cu4Au,0.0
mp-1223201,LiCr4(PO4)3,2.6569000000000003
mp-1223324,Li2MoO3,1.4942
mp-1223537,La9Ga5Se21,0.8272
mp-1223612,Mg2V6Cu4O21,0.0
mp-1223705,KNbW2O9,1.7785000000000002
mp-1223950,HoGaAg,0.0
mp-1224160,K2SrTi10O22,2.6399
mp-1224322,HoInGe2O7,2.6557999999999993
mp-1224443,K3Er4(CuTe2)5,0.48340000000000005
mp-1224503,GdY(CoB)4,0.0
mp-1224948,Ga4B2O9,2.637399999999999
mp-1225427,Dy2GaCu3,0.0
mp-1225557,La4GaSi3,0.0
mp-1225654,CuCl,0.7732999999999991
mp-1225771,Cu3PdAu4,0.0
mp-1225823,Dy(InCu)6,0.0
mp-1225976,CsInCuF6,0.0
mp-1226054,CoNiTe4,0.0
mp-1226371,Cr2Se3,0.0
mp-1226483,CeThS2,0.0
mp-1226587,CeU4O10,0.0
mp-1226729,CdHgSe2,0.0
mp-1226874,Ce4ThO10,1.984999999999999
mp-1227043,CaSm2S3,0.0
mp-1227055,CaLaSi4,0.0
mp-1227096,CaGaCu,0.0
mp-1227131,CaTb3Mn4O12,0.0
mp-1227438,Bi4(TeSe)3,0.3687
mp-1227462,BiTeO4,2.2024
mp-1227497,Bi2Pd3PtO8,0.028899999999999003
mp-1228007,BaAl2O4,3.946099999999999
mp-1228028,Ba3SrAg4,0.0
mp-1228521,Ba2La(FeO3)3,0.0
mp-1228659,Ba3Cd(SnS4)2,2.0791
mp-1228843,AlSb3Pb4O13,1.374699999999999
mp-1228943,AlGa3N4,2.2393
mp-1229046,AlIn(CuSe2)2,0.4902
mp-1229145,Ag6SbAsS6,1.0781
mp-1229219,Ag3Te32Au13,0.0
mp-1232129,Er2MgS4,1.8549
mp-12549,BaAl9Ni2,0.0
mp-1274489,Sr2NbCoO6,0.7725000000000001
mp-1281818,Sr2MnNbO6,1.7225000000000001
mp-1288155,Ba2MnNbO6,0.8068999999999991
mp-1293838,Sr3Cr2O8,0.9840999999999991
mp-1298606,Li2VOF4,2.3345000000000002
mp-1307846,Li2VOF4,2.036
mp-1309882,Ba2TaMnO6,1.1694
mp-1316653,Li2VOF4,2.069099999999999
mp-1317688,Li2V3CrO8,1.1214
mp-1341,Te2Rh3,0.0
mp-1362524,LiV3Zn2O8,1.1698
mp-13718,NaCd4(PO4)3,2.4792
mp-1411,TaS2,0.0
mp-14292,Ba2NdSbO6,3.6673999999999998
mp-16375,Ho5Ni19P12,0.0
mp-1645141,Sr6Ti3FeO14,0.0
mp-17237,Gd3RuO7,0.13890000000000002
mp-17587,Ce2Zn2Ni5,0.010499999999999001
mp-18162,Li(CuO)2,0.0
mp-18660,Sr(ScTe2)2,0.45530000000000004
mp-18718,Ca(NiO2)4,0.0
mp-18727,LiCr(SiO3)2,3.193399999999999
mp-18867,Ba3W2O9,3.6953
mp-19290,Mn2As2O7,1.247
mp-19326,MnO2,0.0
mp-19344,Cr2NiO4,0.0
mp-19441,CaCr(Si2O5)2,3.3907
mp-19455,MnMoO4,1.404799999999999
mp-19467,AgMo3P3O16,1.5721999999999992
mp-2018,AlFe3,0.0
mp-20344,Fe3Ge,0.0
mp-20466,Sn7Ir5,0.0
mp-20493,Mg(InS2)2,2.0039
mp-20545,Cu3AsS4,0.0
mp-20964,La2NiIrO6,0.0
mp-21398,HoIn5Co,0.0
mp-21414,LaIn5Co,0.0
mp-21538,Ba5Ge3,0.0
mp-22237,CeMgCu2,0.0
mp-22430,BAsPbO5,3.3938
mp-22437,Re6P13,0.0
mp-22532,TbTiSi,0.0
mp-22827,Er15C19,0.0
mp-23423,Bi2MoO6,2.5896
mp-25908,Sn(PO3)4,3.4585
mp-26019,LiMn(PO3)3,4.153399999999999
mp-26563,LiFeP2O7,2.373599999999999
mp-27122,LiSn2(PO4)3,3.5637
mp-27589,Cu5(PO5)2,0.0
mp-28006,Ca(Cu2As)2,0.0
mp-28121,La3ReO8,1.697599999999999
mp-28292,Na4GeSe4,1.7906
mp-2874,In2Si2O7,2.7064999999999992
mp-28846,TaCoTe2,0.0
mp-29013,Ca14Si19,0.048400000000000006
mp-29037,BaV3O8,1.9669
mp-29542,K4Bi2O5,2.6553
mp-29708,Hf(Te4Cl3)2,0.9085000000000001
mp-29723,LaB2Ru3,0.0
mp-29843,Bi2Se2Cl7,1.435699999999999
mp-29968,NbSeCl9,2.0713
mp-30127,Rb3B7O12,4.3184000000000005
mp-30146,CaSn2F6,3.628799999999999
mp-31059,Ba(AlGe)2,0.0
mp-31069,P2Pb8O13,2.0702
mp-31378,Cs2Cr4O13,1.7647
mp-31474,Rb2Hg7,0.0
mp-32777,WO3,1.2338
mp-38870,Ca(Ce2Se3)4,0.0
mp-4673,SrHfO3,3.9551
mp-500,TaSe2,0.0
mp-504751,AsHPbO4,3.1424
mp-505436,CuP4O11,0.5740000000000001
mp-510342,Dy2Te4O11,3.3548999999999998
mp-5134,LaMg2Ni9,0.0
mp-529,SmMg2,0.0
mp-540645,Hg3(ClO)2,0.6193000000000001
mp-554007,FeTe2BrO5,1.788399999999999
mp-554451,BaFeF4,3.5335
mp-554658,Cu(SbO3)2,0.0
mp-554735,HgAs4(S2I)2,1.9941
mp-554863,KNb5O13,2.3571
mp-555284,Ba2NdAlO5,3.696399999999999
mp-555515,CuAg4TeO6,0.0
mp-555682,Sn(SeO3)2,3.0896
mp-556075,SrDy2O4,4.022299999999999
mp-556538,Na8(CuO2)5,0.0
mp-557303,Ag2NClO3,1.7106
mp-557704,TlNO3,2.8696
mp-557862,BaAg2(HgO2)2,1.562199999999999
mp-557955,Ca3Al4ZnO10,3.5458
mp-558239,Rb4U5O17,1.517
mp-558477,Ba3V2(PO5)3,1.5997
mp-558512,Na3LaV2O8,3.7596
mp-558712,Ag2BiO3,0.0
mp-558934,Hg3ClO,1.1793
mp-559143,Pb3SO6,2.9556
mp-559435,CoF3,0.0
mp-559799,KGd(PO3)4,3.482599999999999
mp-560038,Mn3B7IO13,3.688399999999999
mp-560233,Sr5B3BrO9,3.920899999999999
mp-561020,NbP4(SCl)5,1.5808
mp-561060,KMoIO6,2.8756
mp-561098,LiUPO6,2.1036
mp-561390,LiYb(PO3)4,0.0
mp-562735,Cs5FeO4,1.299799999999999
mp-567855,RbGeI3,2.199799999999999
mp-568237,CeNiSb3,0.0
mp-568348,P,1.7644000000000002
mp-569834,LiCu2Sn,0.0
mp-570268,MnSbSe2I,0.609799999999999
mp-570562,Te3Pt2,0.0
mp-570883,Ca21(Zn18Ni)2,0.0
mp-571381,Tb2AlGe3,0.0
mp-571404,Hg3(SeI)2,1.1259000000000001
mp-571594,K3AgSn3Se8,1.124
mp-573635,Ba2In2Se5,1.3946
mp-605856,Fe2(TeO3)3,1.8538000000000001
mp-608653,As2Pb2S5,1.6122
mp-6114,La3Ni2B2N3,0.0
mp-622521,BaNd2(MoO4)4,3.4551
mp-623135,Bi3(TeCl5)2,1.3893
mp-626270,MnHO2,1.741
mp-6276,K2Cd2(SO4)3,3.6882
mp-637213,La2GeI2,0.38780000000000003
mp-637292,NaCrS2,0.9914000000000001
mp-640058,PbI2,2.4379
mp-642281,Sr21In8Pb7,0.0
mp-643356,SrH2Br2O,4.179699999999999
mp-647116,ReNCl4O3,1.4522
mp-647900,TlAs3PbS6,0.0
mp-648893,Na4V2O7,3.3364000000000003
mp-649472,KCuPO4,0.0
mp-652695,Re(SeCl6)2,0.9031000000000001
mp-653248,Cr3B7ClO13,2.7718
mp-657300,RhSCl5,1.5876000000000001
mp-667327,Ag2Pb8Cl4O7,2.0734
mp-672341,UF6,2.812599999999999
mp-674492,Na2U2O7,1.589699999999999
mp-6758,KNa4SnSb3,0.40489999999999904
mp-677105,Cu2GeSe3,0.043999999999999005
mp-679991,CuW3Br7,2.1983
mp-680184,TaSe2,0.0
mp-680451,Sm25Ni49P33,0.0
mp-680461,Cu2Bi8Pb2S15,0.601399999999999
mp-680555,TlGaSe2,1.254299999999999
mp-684056,Ti4(PO5)3,0.080499999999999
mp-684627,Ce13O24,0.0
mp-684691,Tm23Se32,0.0
mp-685443,Sn(PCl6)4,1.544
mp-696217,Na2Cr2O7,2.631999999999999
mp-699485,AlH12(NO5)3,3.3708
mp-705291,LiCrP2O7,2.8576
mp-705411,WO3,1.4333
mp-743588,Mn3H24(O3F2)4,1.093899999999999
mp-752863,K4N2O5,0.081399999999999
mp-753589,Li2VCrO4,1.6278000000000001
mp-753604,LiVF6,3.1853
mp-753828,Li2CoSiO4,2.7221
mp-754521,Sr(IO3)2,3.4162
mp-754848,Na2SnO3,2.3901
mp-755019,V2O3F,1.2036
mp-755326,Sr3WO6,3.423
mp-757233,Gd2Zr2O7,2.7903000000000002
mp-757336,Hf2N2O,2.0236
mp-757513,Li2Mn3CoO8,1.385
mp-757749,Li2Mn(PO4)2,0.403699999999999
mp-757951,LiP3(WO6)2,2.4395
mp-758075,Fe2H4O2F5,1.5947
mp-759886,VOF2,1.596899999999999
mp-760247,Na2FeO3,0.7887000000000001
mp-760823,Li11V4F24,0.0
mp-763051,Li2VO2F,1.8141999999999991
mp-763983,V2O3F,1.232599999999999
mp-765585,Ca3Tl4O9,0.371399999999999
mp-766238,Zr2N2O,1.601499999999999
mp-766505,RbH2O2F,4.030699999999999
mp-766878,Li13Ni15O28,0.0
mp-767632,VPO4,2.0763
mp-767873,V9Sb7O32,0.606399999999999
mp-768149,DyInO3,2.016399999999999
mp-768585,HoTa3O9,3.2358000000000002
mp-770571,Ho2WO6,3.7762000000000002
mp-773017,LiTi2(PO4)3,2.4389
mp-773057,Li3Mn2(PO4)3,0.9790999999999991
mp-773180,Li4Mn3Sn5O16,0.008399999999999
mp-775217,CoSb3(PO4)6,1.615999999999999
mp-776164,LiFeF4,3.0526
mp-776212,Hf2N2O,2.057299999999999
mp-776246,Zr2N2O,1.5624
mp-776615,Li4VCr3O8,1.79
mp-778228,Gd2(WO4)3,3.7925999999999993
mp-778364,Na6Ti2O7,3.4152
mp-778485,Ba2Ga6O11,2.6626000000000003
mp-779260,Gd3SbO7,2.5002
mp-780231,Hf2N2O,1.9408
mp-780706,LiMnP2O7,0.9067000000000001
mp-8496,Sr2SmNbO6,3.147699999999999
mp-862905,PmGaAu2,0.0
mp-862919,PmInHg2,0.0
mp-864937,Mg3Sc,0.0
mp-865156,Dy2ZnGa,0.0
mp-865761,ThZnRh2,0.0
mp-865798,GaCu3,0.0
mp-865862,CeAgAu2,0.0
mp-867222,LiCa2Ir,0.0
mp-867522,CsTi8O16,0.0
mp-867822,LiYAu2,0.0
mp-867969,LiGdHg2,0.0
mp-966,NbS2,0.0
mp-966800,InP,0.513799999999999
mp-973067,ScGa2Ru,0.0
mp-973882,Lu2PdRh,0.0
mp-974370,PtRh3,0.0
mp-9760,BaTb2PdO5,2.117399999999999
mp-977037,KCe(PO3)4,0.27839999999999904
mp-979414,WSCl4,1.9837
mp-981541,TmLuRh2,0.0
mp-983425,Li2PmGe,0.0
mp-984352,Al2CoOs,0.0
mp-984806,Ba2PrRuO6,0.2056
mp-9971,YGe,0.0
mp-998419,BaHfS3,0.8641000000000001
mp-998713,TlInCl3,1.7591
mp-999338,NdAu,0.0
mvc-14697,SbF5,3.6793
mvc-16730,Li(CrS2)2,0.0
mvc-1894,CaCu(PO3)4,0.1512
mvc-3518,BiF5,1.870299999999999
mvc-4129,Ca2TaTiO6,0.0
mp-1002571,NaMn2O4,0.544999999999999
mp-1003318,CaMn16O32,0.0
mp-1007664,InPd3,0.0
mp-10162,La3Si2,0.0
mp-1018054,HfPt3,0.0
mp-1019546,BaY4Si5O17,4.8123000000000005
mp-1019579,CaMg3SiN4,2.4057999999999993
mp-1025241,ScGa5Fe,0.0
mp-1025410,LuU2S3O2,0.0
mp-1034,Th2Cu,0.0
mp-10638,ZrSb,0.0
mp-1067880,Ga,0.0
mp-1069815,In3Pt2,0.0
mp-1077776,ScB2Ir3,0.0
mp-1078125,NdIn5Co,0.0
mp-1078450,CeCdPt,0.0
mp-1078507,NdNiSb2,0.0
mp-1078514,ZrNiP2,0.0
mp-1078582,UInPt,0.0
mp-1078918,ZnCu2SnSe4,0.23639999999999903
mp-1079316,Dy(GePt)2,0.0
mp-1079635,GaMo2C,0.0
mp-1079945,SrAs3,0.0
mp-1080573,V3PC,0.0
mp-1086666,Sr2TaInO6,4.089399999999999
mp-1095247,ScGeRh,0.0
mp-10966,Tb2Cu(GeO3)4,0.7129000000000001
mp-1096979,NaVZnO4,3.3769
mp-1103036,Y2Ga8Co,0.0
mp-1104388,Y3Pd2,0.0
mp-1104426,Nd3Ga10Ni,0.0
mp-1104843,ZnCu2SiSe4,0.40019999999999906
mp-1105939,Pr(Ge3Pt)4,0.0
mp-1112503,Cs2TlAsF6,3.0006
mp-1112784,Cs2KCeI6,0.44120000000000004
mp-1112934,Cs2YAgBr6,3.3675
mp-1113438,Rb2InAgBr6,0.22830000000000003
mp-11140,Ho2Sb5,0.0
mp-1114483,Rb2TlRuF6,0.0
mp-1114583,Rb2LiYCl6,4.9308
mp-1116,Sr2Mg17,0.0
mp-1133325,Na5Lu(SiO3)4,3.8211
mp-1147600,Li6Zn3(PS4)4,2.6112
mp-1176702,LiFeF4,3.272399999999999
mp-1183166,AgBiPd2,0.0
mp-1183458,Ca2CdHg,0.0
mp-1183640,CdHgPd2,0.0
mp-1183749,CrIr3,0.0
mp-1183808,DyLuIr2,0.0
mp-1183860,CePrHg2,0.0
mp-1184180,CuTeAs,0.0
mp-1184427,Gd2AlZn,0.0
mp-1184542,Eu3Ga5,0.0
mp-1184587,Hf2MnOs,0.0
mp-1184612,Hf2TcNi,0.0
mp-1184657,Hg,0.5669000000000001
mp-1185134,LaYbCu2,0.0
mp-1185312,LiCu3,0.0
mp-1185373,LiLu2Co,0.0
mp-1185456,Lu2PdAu,0.0
mp-1185774,Mg2Sc,0.0
mp-1185953,MgS2,1.0132
mp-1186006,MnV2Ru,0.0
mp-1186024,Na3Cd,0.0
mp-1186120,NpCo3,0.0
mp-1186297,NdDyZn2,0.0
mp-1186338,NdTmIn2,0.0
mp-1186420,PaFe3,0.0
mp-1186734,Pr3Y,0.0
mp-1186785,PrEuZn2,0.0
mp-1186976,Sc3Sn,0.0
mp-1187345,TbErIr2,0.0
mp-1187587,Tm2ZnAu,0.0
mp-1187614,YbLuHg2,0.0
mp-1187628,TmZrCo2,0.0
mp-1187646,YbHoPd2,0.0
mp-1187704,Y2ZnAg,0.0
mp-1189705,Ta9(CoS3)2,0.0
mp-1190284,Bi8Se9,0.2393
mp-1190414,Yb7In(NiGe3)4,0.0
mp-1190934,Gd8Rh5C12,0.0
mp-1191035,Ce2Si3Rh,0.0
mp-1191364,WO3,1.2582
mp-1191380,FeB4O7,2.6797999999999993
mp-1191880,Sr2LiGe3,0.0
mp-1192039,Nd3TaO7,3.4123
mp-1192583,BaNdInO4,2.5713
mp-1193091,Yb(TmSe2)2,1.178599999999999
mp-1193997,BaLuCo4O7,0.7995999999999991
mp-1194289,Ga2(Co7B2)3,0.0
mp-1194653,NaP15,1.5192
mp-1195034,Rb3Bi2I9,2.2516
mp-1195393,TiH42N14Cl3,0.9422
mp-1196232,Nd6Fe13Pb,0.0
mp-1196505,Na9Fe(MoO4)6,2.9776
mp-1196692,Ca5V3O13,0.6534999999999991
mp-1197358,USiPbO6,1.826699999999999
mp-1198818,La3Mo4O16F,3.6204
mp-1199005,Yb5(Ge5Ir2)2,0.0
mp-1199574,Ca4As3H9O16,3.9317
mp-1200246,Sm2Fe3Si5,0.0
mp-1200464,Fe3Te3ClO10,0.3683
mp-1200563,Ag7AsSe6,0.0
mp-1200581,Bi2B3HO8,3.2298
mp-1201001,Y5(NiTe)2,0.0
mp-1201182,Eu2Ni17,0.0
mp-1201475,Mg3(Al9Mo)2,0.0
mp-1202057,Yb36Sn23,0.0
mp-1202187,Ho2Ni17,0.0
mp-1202252,CaZn2(H5O4)2,3.8401
mp-1202693,Ce4Se3N2,0.0
mp-1202795,Yb5(Co2Ge5)2,0.0
mp-1203179,PbI2,2.2999
mp-1204651,Tb12(ReC3)5,0.0
mp-1205140,Nd6Al43Cr4,0.0
mp-1205297,Tb2S3,0.7481999999999991
mp-1206776,Tb(PPd)2,0.0
mp-1206963,Mg2Ga2S5,1.1585
mp-1208129,U2(Fe7B2)3,0.0
mp-1208420,Tb5BiPd2,0.0
mp-1208885,SmVSb3,0.0
mp-1208920,Sm2CoPtO6,1.7717
mp-1208937,Sm4CdIr,0.0
mp-1209407,Pr4Re6O19,0.0
mp-1209661,Pr3ZrSb5,0.0
mp-1210237,NaEuCu2F8,0.0
mp-1210337,Sr5(RhO3)4,0.0
mp-1210342,Th3In13Ni4,0.0
mp-1211937,K3Nb6SBr17,0.5467000000000001
mp-1212013,K2CoO3,0.38430000000000003
mp-1212409,HfAsRu,0.0
mp-1214040,Ca3Nd2Sb3O14,0.0
mp-1214397,Bi8Te7,0.0945
mp-1214507,Ba4Ga3Si20,0.0
mp-1214649,Ba3Eu(BO2)9,0.0
mp-1214951,AlZn10(B4Rh9)2,0.0
mp-1215019,Ca10Al2Cu19,0.0
mp-1215434,ZnSnAs2,0.0
mp-1215448,Zn2PdAu,0.0
mp-1215745,Zn3Fe8CoO16,1.6329
mp-1216029,YCrFe11,0.0
mp-1216112,Y5Sc5Si6,0.0
mp-1216123,Y2Al3Fe,0.0
mp-1216205,Y4Mn3NiO12,0.5591
mp-1216287,Y5Co19P12,0.0
mp-1216516,V3Zn2GaO11,2.5802
mp-1216565,TmBeCu4,0.0
mp-1217197,Ti3AlNi12,0.0
mp-1217306,Th2Si3Ni,0.0
mp-1217492,TbNdCo4,0.0
mp-12175,Y5Pt4,0.0
mp-1217739,Tb4Si7,0.0
mp-1218137,SrNdCrO4,2.4029
mp-1218140,TaAl4Ni15,0.0
mp-1218237,SrLa(FeO3)2,0.0
mp-1219223,Sn13Pd20,0.0
mp-1219552,RbTi3NbO9,2.4247
mp-1219570,RbSbWO6,2.6513
mp-1219679,PrBrCl2,3.891199999999999
mp-1220106,Pr12Si5Se28,0.9112
mp-1220336,Nd2Fe4Co13,0.0
mp-1220383,NbB4Mo3,0.0
mp-1220418,Nb6RuRh,0.0
mp-1220489,NbSb3O8,1.9024
mp-1220582,Nd(ScSi)4,0.0
mp-1221330,Na3Nb7P4O29,1.8809
mp-1221444,Na2BrClO6,4.662199999999999
mp-1221842,Mn3B4Mo3,0.0
mp-1222026,Mn2GaNi,0.0
mp-1222036,Mn4CoNi3Ge4,0.0
mp-1222163,Mg4FeO5,3.101199999999999
mp-1222452,LiBi3(ClO2)2,2.5888
mp-1222712,LaV2BiO8,3.2923
mp-1223049,La4Br3ClO4,3.7798
mp-1223176,LaCeSn6,0.0
mp-1223369,La2CrFeO6,2.254600000000001
mp-1223907,Hg2SeS,0.0
mp-1224138,In2CuAgS4,0.36160000000000003
mp-1224343,In4CuAg3Te8,0.0005999999999990001
mp-1224774,La9Ga5S21,1.6878000000000002
mp-1224820,GaAgSeS,0.606899999999999
mp-1224898,GaAg(GeSe3)2,1.0565
mp-1225129,EuPPt,0.0
mp-1225134,EuGaAg4,0.0
mp-1225540,ErCdIn,0.0
mp-1225711,Er6Mn(SiS7)2,0.9466999999999991
mp-1225772,Cu3Pd13S7,0.0
mp-1225778,Dy5Co19P12,0.0
mp-1225944,CsSbWO6,2.6061
mp-1226044,Co4CuNiS8,0.0
mp-1226059,Cr8CoCu3Se16,0.0
mp-1226569,Co3Re25B12,0.0
mp-1226741,CdHgTe2,0.0
mp-12268,BaCuF4,0.0
mp-1226807,Ce2ThO6,1.992099999999999
mp-1227017,Ca4ZnAg3,0.0
mp-1227042,CaGaSi,0.0
mp-1227402,Ca2IrPtO6,0.0
mp-1227625,Ca3Tl4O9,0.8517
mp-1227706,Ca2TiMnO6,1.6396000000000002
mp-1228436,Al3GaN4,3.4096
mp-1228507,Ba2(CaAl3)3,0.0
mp-1228736,Ba5NbIr4O15,0.0
mp-1228944,CsRbMnF6,3.4245
mp-1228984,AlCu(PSe3)2,0.9193999999999991
mp-1229110,AlBi3Sb2O11,2.685799999999999
mp-12398,Mg(CoGe)6,0.0
mp-12450,LiNd2OsO6,0.0
mp-1246024,Sr7HfN6,0.9247999999999991
mp-1247428,Ca3ReN3,0.0
mp-12607,PrPt,0.0
mp-12712,Zr3Pd4,0.0
mp-1283454,Li2NiO2F,0.0
mp-12854,ZnCu2GeTe4,0.0
mp-12912,Ba2PrRuO6,0.1501
mp-1303435,LiFeBO3,3.2068
mp-13194,PrSbO4,2.2032
mp-1319763,Li4Ni3SbO8,0.0002
mp-1319906,Li2TiV3O8,0.9621999999999991
mp-1329,LaTe2,0.0
mp-13451,Dy2Sb5,0.0
mp-135,Li,0.0
mp-15208,Nb4GaSe8,0.0
mp-1566038,Ca2MnSbO6,1.472899999999999
mp-1642439,Ba3Sr(CoO3)4,1.0686
mp-1661854,Mg2Ta2VO8,1.6399
mp-17103,Sr3Ta6(Si2O13)2,3.085099999999999
mp-18833,Sr3Cr2O8,0.0
mp-19358,SmMn2O5,0.0
mp-19996,Ba2GdNbO6,2.6515999999999993
mp-20132,InHg,0.0
mp-203,NiTe,0.0
mp-20714,FeSb2,0.0
mp-20907,La2InRh2,0.0
mp-21463,PrTiGe,0.0
mp-21699,BaLa2In2O7,2.462
mp-21857,Cs(WO3)2,0.0
mp-21863,Pd3(PbS)2,0.0
mp-22147,HfPbS3,1.4886
mp-22645,PrSnPd,0.0
mp-2272,Sr6Li23,0.0
mp-23223,TiI3,0.0
mp-23413,NbBiO4,2.965
mp-23559,In(IO3)3,3.191099999999999
mp-23636,Cs3Np(Cl2O)2,0.22829999999999903
mp-24516,Co7P6(HO6)4,2.7560000000000002
mp-24831,DyH4I3O11,3.758499999999999
mp-27577,Cd2As3I,0.8108000000000001
mp-28253,LiBiO2,2.509
mp-28476,SrBiSe3,0.49690000000000006
mp-28843,Tl2SnTe5,0.0748
mp-29218,Ge3Bi2O9,2.979399999999999
mp-29428,Ta(TeCl3)2,1.177099999999999
mp-29492,S2I2O11,2.6356