material_id,pretty_formula,band_gap
mp-559574,K3Sm(BO3)2,3.418399999999999
mp-559713,Fe3(P2O7)2,2.0084
mp-559792,Nd2As6Xe5F46,2.6465
mp-559814,Li5SbS3I2,2.508199999999999
mp-559984,Rb8AlAu3O4,1.2244
mp-559994,La6S4BrN3,1.408999999999999
mp-560019,K2Ge3(BO5)2,3.868299999999999
mp-560297,LiTaSiO5,3.806499999999999
mp-560548,KNi3As3O11,2.562999999999999
mp-560742,Ba2TeP2O9,3.5039
mp-560789,SbI(ClF3)2,1.8658000000000001
mp-561434,Rb2Sn2Hg3S8,1.656299999999999
mp-561448,Na4Ce(As2O7)2,1.5519
mp-567197,YSnAu,0.0
mp-567280,Yb5Bi3,0.0
mp-567458,Ho(PRu)2,0.0
mp-567492,Ce2WC2,0.0
mp-567752,Cs2In3,0.1628
mp-568062,DyTlSe2,1.430899999999999
mp-568139,NdInAu2,0.0
mp-568148,PrZn11,0.0
mp-568335,Cs2Hg27,0.0
mp-568914,K2WCl6,0.0
mp-569013,Ho(SiAu)2,0.0
mp-569086,DyInNi,0.0
mp-569508,Pr6Cd4Pd13,0.0
mp-569603,BaCa4(CuN2)2,0.23970000000000002
mp-569678,Rh4Pb5,0.0
mp-570947,YbSnAu,0.0
mp-571167,NdNiSb3,0.0
mp-571438,Be12V,0.0
mp-571575,Pr5(CBr4)2,0.6061000000000001
mp-572767,CsAuF4,2.4479
mp-573622,Dy12Co7,0.0
mp-579628,Gd2Tl,0.0
mp-581967,Nb2O5,1.6746999999999992
mp-601322,Ba6Ge5N2,0.0
mp-6018,Ba3NdRu2O9,0.0
mp-607138,Sc5Bi3,0.0
mp-615760,Ba5(InSb3)2,0.0
mp-6178,Cs2KTiF6,0.0
mp-620571,CaInPd,0.0
mp-635,ScRh3,0.0
mp-638558,Na10EuSn12,0.675399999999999
mp-640324,TmCuPbSe3,1.231799999999999
mp-6404,BaCa2(PN2)6,4.072599999999999
mp-641683,Eu2Ir2O7,0.0
mp-642655,K2GdF5,0.24380000000000002
mp-645514,Bi12Rh3Br2,0.0
mp-6456,LiNbGeO5,3.3859999999999992
mp-645799,VP2Pb2O9,2.2786
mp-647247,Er2Ga10Os3,0.0
mp-649833,Tb15(Ni4P3)7,0.0
mp-6571,BaCuAs2O7,0.4792
mp-665747,EuAg,0.0
mp-667345,NbTl2PO6,2.9007
mp-680671,Mg4Zn7,0.0
mp-683974,Pr2(SeO3)3,3.6441
mp-684881,Mn27Sb26,0.0
mp-6908,YMgZn,0.0
mp-7095,CeCoSi2,0.0
mp-7189,AlPd,0.0
mp-739,TiP,0.0
mp-753669,Hf(MnSn)6,0.0
mp-755465,Hg2Pt2O7,0.0
mp-756442,Mg(CoO2)2,0.0
mp-759647,LiWF6,3.4687
mp-759912,Li10CoNi9O20,0.4141
mp-760825,LiCu3F10,0.0
mp-766046,Tl(WO3)3,0.0
mp-769147,Y2(SeO4)3,3.8169
mp-770957,Be(CoO2)2,2.2683
mp-775485,Bi3PO7,2.3797
mp-776555,NaV3P2O13,2.1006
mp-776597,NaCu(PO3)4,0.7168
mp-777297,K5H(CN2)2,3.8504
mp-779221,P2H9(CBr)3,2.5267
mp-79,Zn,0.0
mp-8244,Ti5TlSe8,0.0
mp-8375,Th(SiTc)2,0.0
mp-849570,Li2V3SbO8,2.0777
mp-861936,LiPd3,0.0
mp-861953,AlFeRh2,0.0
mp-862257,Sc2ZnAu,0.0
mp-862332,LaHg3,0.0
mp-862366,Sc2TlAg,0.0
mp-862758,PrMgHg2,0.0
mp-862780,K2InP2S7,1.8783999999999992
mp-862815,LiScAu2,0.0
mp-862840,Pr11In9Ni4,0.0
mp-862872,PmAgAu2,0.0
mp-862923,PmInAg2,0.0
mp-862974,PmZnAu2,0.0
mp-863066,Ta6Pb4O19,1.7453999999999992
mp-864796,EuCdHg2,0.0
mp-864804,LiTbHg2,0.0
mp-864840,NbZnRu2,0.0
mp-864996,AcMg5,0.0
mp-864999,Dy2IrRh,0.0
mp-865108,NaSmHg2,0.0
mp-865169,CaErRh2,0.0
mp-865170,GaFeRh2,0.0
mp-865321,Lu2IrRu,0.0
mp-865403,Tm2MgGe2,0.0
mp-865586,VGaRu2,0.0
mp-865611,MgRh3,0.0
mp-865630,Yb2AgGe,0.0
mp-865771,YbInPd2,0.0
mp-865790,YbInHg2,0.0
mp-865920,YbPmZn2,0.0
mp-865929,Cd2PtRh,0.0
mp-865981,TmMgHg2,0.0
mp-866119,Tm2RuPt,0.0
mp-866688,Cs4P2PdSe8,1.4224
mp-8667,CeB2C,0.0
mp-867167,LiCa2Tl,0.0
mp-867287,LiInAu2,0.0
mp-867324,Tb2Ni12As7,0.0
mp-867580,Li2Cr5(Si2O7)2,2.7032
mp-8866,La10Se19,0.5697000000000001
mp-8896,Sr2B4Rh5,0.0
mp-9023,ScSiAu,0.0
mp-932,ScGa3,0.0
mp-956,U3Si,0.0
mp-972536,Sm2TlAg,0.0
mp-973921,Lu2Ni12As7,0.0
mp-9753,Na2NbF6,0.29700000000000004
mp-976955,Li2RuF6,0.047799999999999
mp-9934,BaMgSi,0.0
mp-996942,Ba6In2NF,0.0
mp-9973,VB,0.0
mp-999335,NdRh,0.0
mp-999471,NaNdSe2,1.8264
mp-1007666,HoAu,0.0
mp-1009132,HoBiPd,0.0
mp-1018799,MgSc3Ru2,0.0
mp-1025177,Rb2CuF4,0.0
mp-1029257,Zn2ReN3,0.0
mp-10320,La2MgRhO6,0.0
mp-10560,Sm3AuO6,1.8294000000000001
mp-1065668,GdNiC2,0.0
mp-10677,CaPAu,0.0
mp-1069956,Ca(SiRh)2,0.0
mp-1071567,GdSn2,0.0
mp-1071694,TmZnGa,0.0
mp-10721,Ti2C,0.0
mp-1072553,TmCdNi4,0.0
mp-1076936,ThSiSe,0.0
mp-1077095,LuCdNi4,0.0
mp-1077393,TmB2Ir3,0.0
mp-1077466,CaBi2,0.0
mp-1077485,HoSnGe,0.0
mp-1078086,In2Ni3Se2,0.0
mp-1078195,SiI3,2.9565
mp-1078292,CdCu2SnS4,0.3113
mp-1078439,CeIn7Pt2,0.0
mp-1078498,ZnCu2SiTe4,0.29000000000000004
mp-1078543,YbAlCu,0.0
mp-1078673,NdInNi,0.0
mp-1079146,Th3Si2,0.0
mp-1079613,Sm(GeIr)2,0.0
mp-1079803,Th(BOs)2,0.0
mp-1079992,Zr2PbC,0.0
mp-1080144,Sm(NiSn)2,0.0
mp-1080453,NdAsRuO,0.0
mp-1080489,HfGeRu,0.0
mp-1084808,YbAu,0.0
mp-1089,TiIr3,0.0
mp-1095128,TiPOs,0.0
mp-1095197,SmCdGa,0.0
mp-1100787,YbMg149,0.48689999999999906
mp-1101093,CsZn4P3,0.37250000000000005
mp-1101867,ZrCuSn,0.0
mp-1102073,SrCdPt,0.0
mp-1102084,DyTc2,0.0
mp-1102399,Fe2P2O7,0.752899999999999
mp-1103421,Dy2Pt,0.0
mp-1104547,HoGa3Ru,0.0
mp-1104803,Dy(AlC)3,0.0
mp-1105893,La3Cu3Bi4,0.3808
mp-1106326,Er2Si4Mo3,0.0
mp-1112688,Cs2LiCeBr6,0.44520000000000004
mp-1113784,Rb2EuAgCl6,0.0
mp-11436,Er(VGa2)2,0.0
mp-1147715,BaCuS2,0.0
mp-1154,Ho4C7,0.586699999999999
mp-11557,ScRe2,0.0
mp-11564,TmRh,0.0
mp-11584,Lu8Te,0.0
mp-1178446,CoPO4,1.212
mp-1178678,YH3,0.006799999999999
mp-11807,LiPt,0.0
mp-1183063,Ac2CdGe,0.0
mp-1183187,AlFe2Ge,0.0
mp-1185263,LiPaO3,2.9267000000000003
mp-1185585,Mg149Cr,0.0245
mp-1185597,Mg149Ga,0.47790000000000005
mp-1185620,MgVRu2,0.0
mp-1185634,Mg149Si,0.34039999999999904
mp-1186117,NiPt3,0.0
mp-1186655,PmTmRu2,0.0
mp-1186761,Ta2MnRe,0.0
mp-1187064,Th3In,0.0
mp-1187522,YbSmCd2,0.0
mp-1187575,Tm2GaRu,0.0
mp-1189327,Sm2Si5Ni3,0.0
mp-1190028,TmAl3Ni2,0.0
mp-1190059,EuHfS3,0.0
mp-1190294,Zr5Sn3Se,0.0
mp-1191254,Ho3B7W,0.0
mp-1191378,Tb3SbO7,2.7520000000000002
mp-1191543,HoCrB4,0.24910000000000002
mp-1191707,Lu3(SiNi3)2,0.0
mp-1191755,Yb2Fe12P7,0.0
mp-1192210,LiDySn,0.0027
mp-1192856,Rb2WSe4,1.3985
mp-1192912,La3RuBr3,0.0
mp-1193241,Hf6Al16Pd7,0.0
mp-1193397,Zr9NiMo4,0.0
mp-1193521,V3(Co10B3)2,0.0
mp-1193567,TbMoBrO4,2.0463
mp-1193840,Zr6Al16Pd7,0.0
mp-1193912,Ti3(Ni10B3)2,0.0
mp-1194094,Lu2(Ga3Co)3,0.0
mp-1194348,Eu3GaP3,0.0
mp-1194809,Rb8Cu6As8S19,1.2763
mp-1195550,K2Ce(PO4)2,1.2912
mp-11958,CaSn2Pd,0.0
mp-1196316,Cr7C3,0.0
mp-1196661,ErNiSn2,0.0
mp-1196759,Yb11Bi10,0.0
mp-1197401,K4B10H4O19,5.133199999999999
mp-1197471,LiAs(XeF4)3,2.9108
mp-1197620,K3As(PSe3)3,1.5724
mp-1197797,K3Ta2Cu3S8,2.311
mp-1197860,Nd3Sn13Ir4,0.0
mp-1198176,NbAl2(SeCl4)2,1.9328
mp-1198273,SrP11H28N9,1.9578000000000002
mp-1198778,Te6RuBr8,1.4039000000000001
mp-1199088,Rb4Mo5(PO11)2,3.3974
mp-1199315,Lu3Ga2,0.0
mp-1199558,Sm5Ir3,0.0
mp-1200971,Sc2Nb3Ge4,0.0
mp-1201215,H7AuN4O15,1.9357000000000002
mp-1201929,BaLa(SbSe3)2,0.646199999999999
mp-1202195,Pr2ZrS5,1.051299999999999
mp-1202574,AgS2(O3F)2,0.013800000000000002
mp-1203145,K3Yb(SO4)3,0.0
mp-1203477,Ce2SiPd14,0.0
mp-1204836,RbTa3(TeO6)2,2.9
mp-1205075,KBa2Cd2Sb3,0.2048
mp-1205290,Zn6Ru,0.011299999999999
mp-1205373,Y6CoBr10,0.09149999999999901
mp-1205382,Ba3YIr2O9,0.0
mp-1205407,Sm3Rh,0.0
mp-1205603,TbSiRu2C,0.0
mp-1206255,ErIn5Rh,0.0
mp-1206340,ErMn2SiC,0.0
mp-1206516,Lu3InC,0.0616
mp-1206769,Tm2MgNi2,0.0
mp-1206785,Nd2GaNi2,0.0
mp-1206849,SrPAu,0.0
mp-1206856,DyB3Mo,0.0
mp-1207113,Rb(PRh)2,0.0
mp-1207142,Rb(CoAs)2,0.0
mp-1207177,TbBiPd,0.0
mp-1207217,Rb2PuO4,0.0
mp-1207650,YbAg(WO4)2,0.0
mp-1207658,Yb(FeSb3)4,0.0
mp-1207676,YbEu3O6,0.0
mp-1207680,YGeBiO5,3.4447
mp-1207813,Y4CdPt,0.0
mp-1207829,Yb6Mn4Al43,0.0
mp-1207961,Tm5SbPt2,0.0
mp-1208145,Tm(Al5Re)2,0.0
mp-1208183,Tm6Ta4Al43,0.0
mp-1208672,SrCo(GeO3)2,2.2472
mp-1208883,SmAsSe,0.584199999999999
mp-1209046,ScBi3(MoO6)2,2.8928000000000003
mp-1209136,RbSm(WO4)2,3.4517
mp-1209367,RbEr(WO4)2,3.4229000000000003
mp-1209462,Rb3NaRe2O9,1.783
mp-1209803,Pr2(Al3Rh)3,0.0
mp-1211106,LiPr2RuO6,0.3428
mp-1211281,La3HfGa5O14,3.7206
mp-1211311,La2(Al3Ir)3,0.0
mp-1211441,Nd23Mg4Ni7,0.0
mp-1211497,KSc(WO4)2,3.0946
mp-1211687,La5Ge3O,0.0
mp-1211724,Mn2Tl2(MoO4)3,2.7963
mp-1211788,La4CI6N,1.1841
mp-1211986,K2Hg3S4,2.0728
mp-1212312,Ho4CdPd,0.0
mp-1212628,Ho3Ga15Ru4,0.0
mp-1212949,Er4CdPt,0.0
mp-1213067,Er2(Ga3Rh)3,0.0
mp-1213227,DySi3Ni5,0.0
mp-1213363,EuNpO3,0.0
mp-1213369,CsTb(NbBr3)6,0.960199999999999
mp-1213740,CrNiAg2F7,1.6357
mp-1213760,CeMgRh,0.0
mp-1214345,BaSi12Pt5,0.0
mp-1214509,Ba3ZrIr2O9,0.0
mp-1214513,Ba6Tb2Al4O15,3.9202
mp-1215155,Ba21(Cd2Bi9)2,0.32220000000000004
mp-1215432,YbTmSe2,0.0
mp-1215551,YbZnGa,0.0
mp-1215634,Zr2Te3,0.0
mp-1216061,Yb2SnS5,0.8999
mp-1216156,Y2(CuNi)5,0.0
mp-1217570,TbCu2Ni3,0.0
mp-1217877,Tb14(P8Ir11)3,0.0
mp-1218087,Ta3Mn8Al,0.0
mp-1219024,SmGa3Pd,0.0
mp-1219162,Sm6Ge3Se14,1.1564
mp-1219195,Sm2Ga3Cu,0.0
mp-1219236,Re3Br8Cl,0.9126000000000001
mp-1219336,Sr10In17Au27,0.0
mp-1219658,Rb8Nd(AsS4)4,0.0342
mp-1220139,NdGePt,0.0
mp-1220172,NdAl2Pt3,0.0
mp-1220430,NbMoO4,0.0053
mp-1221046,NaPuF4,0.0
mp-1221215,Na3ThB24,0.0
mp-1222297,LiTbS2,1.9042000000000001
mp-1222470,LuAl7Fe5,0.0
mp-1223006,LaAl2Ag3,0.0
mp-1223466,La6Mg(GeS7)2,2.0051
mp-1223845,K(SiPd)4,0.0
mp-1224154,K2P2PdO7,1.1952
mp-1225380,Dy6Mg(GeS7)2,2.1738
mp-1225829,CsTiAlO4,3.9228
mp-1225926,CsGaCuF6,0.0
mp-1226247,Cr4GaCuS8,0.0
mp-1226851,CeTaTiO6,0.34880000000000005
mp-1227448,Ca(B2Pt3)2,0.0
mp-1228225,Ba3Ta4TiO15,2.3841
mp-1228332,Ba2TlSbO6,0.0
mp-1228411,Ba5Li2U3O15,1.280799999999999
mp-1228672,B5Ir3W2,0.0
mp-1229166,Cs(NpSe3)2,0.0
mp-1235,TiIr,0.0
mp-1235059,LiO8,0.0
mp-12487,CsDyCdTe3,1.543699999999999
mp-12803,BaEr2F8,7.2197
mp-12923,SrPIr,0.0
mp-13351,RbUAgSe3,0.0
mp-13474,LiErGe,0.0
mp-13478,SmCoSi2,0.0
mp-1402,SmNi2,0.0
mp-14304,Lu2MgS4,2.1437
mp-1458,Nb3Ir,0.0
mp-14786,Ba(Cu2As)4,0.0
mp-14842,Mg3(Ni10P3)2,0.0
mp-14912,La4Si2Se3O7,2.415400000000001
mp-15039,Ba2Yb(CuO2)4,0.0
mp-15051,Nd(PdO2)2,0.0
mp-15147,K2VCuS4,1.2547000000000001
mp-15236,CrSbSe3,0.0
mp-1646,Li3Hg,0.0
mp-16501,HfAlPd2,0.0
mp-16866,KNpN3O11,0.09829999999999901
mp-17054,Cs3TaS4,2.9443
mp-17120,Cs6K3AlSb4,0.6523000000000001
mp-17466,Hf5Sb3,0.0
mp-1751,ThSb,0.0
mp-17707,Cs3Na2SnP3,1.038799999999999
mp-17841,Mg4Nb2O9,3.4252000000000002
mp-17872,Ba(YTe2)2,0.8063
mp-17954,BaCu2SnS4,0.3935
mp-18290,Sr6Ga5N,0.0
mp-18571,BaCrO4,2.981
mp-18658,RbLaSiS4,2.7799
mp-18868,RbFe(MoO4)2,2.4314
mp-18883,YVO3,1.5634000000000001
mp-19017,LiFePO4,3.920899999999999
mp-19083,NaVO3,3.240599999999999
mp-1969,NbSb2,0.0
mp-19728,YSiRh,0.0
mp-19806,USiIr,0.0
mp-19810,TaNiTe2,0.0
mp-19914,RbGdTe4,0.0
mp-20857,CoB,0.0
mp-21100,CrBPbO4,2.2358000000000002
mp-21171,MnGaCo2,0.0
mp-21200,PuGa2,0.0
mp-21215,InPd,0.0
mp-21316,TaSiIr,0.0
mp-21350,Pr2MgGe2,0.0
mp-21757,Eu3Al5O12,0.0005
mp-21767,Si2Pb3O7,2.6294
mp-21845,FePd3,0.0
mp-21849,Eu(SiIr)2,0.0
mp-2191,ErSb,0.0
mp-22018,Hf(MnGe)6,0.0
mp-22031,EuSnPd,0.0
mp-22524,CeP2O7,1.7292
mp-22626,OsF6,0.0
mp-22653,Eu(SiAg)2,0.0
mp-22902,LiBi,0.0
mp-2292,La2O3,3.5901
mp-22983,LiAlCl4,5.556999999999999
mp-2324,PrCd2,0.0
mp-23370,CuW3Br7,2.063799999999999
mp-2338,TbZn2,0.0
mp-24015,Cd2H3ClO3,2.0929
mp-2409,Ni5Sb2,0.0
mp-24250,Mn2H2SO6,2.7637
mp-2480,OsSe2,0.5819999999999991
mp-24822,Na5Al3H14,2.5979
mp-2491,ErSe,0.0
mp-2545,YbHg,0.0
mp-25983,LiMo(PO4)2,2.9859999999999998
mp-26005,LiMn6P7O24,3.5602
mp-2620,DySi,0.0
mp-27144,TlPO3,3.4619
mp-27753,In2(PS3)3,1.440499999999999
mp-27976,SmBr3,2.9293
mp-28207,V2S2O11,2.3422
mp-28419,K2TeSe3,1.9572999999999992
mp-28457,Ba2Ta15O32,0.0
mp-28638,Gd2CCl,0.0
mp-28701,CsSbS6,1.7828
mp-2877,Nd(CuSi)2,0.0
mp-28884,Cs(FeAs)2,0.0
mp-28913,Ti6CCl14,0.9617999999999991
mp-28943,Mn2BO4,0.5519000000000001
mp-29375,Na3InS3,2.7744
mp-29498,WBr2,2.4659
mp-29693,Rb2AgCl3,2.965099999999999
mp-2985,HoB2Ru3,0.0
mp-30142,Be4N6O19,3.5725
mp-30464,Bi2Pd5,0.0
mp-30473,Ca3Ga5,0.0
mp-30819,LiAl2Pt,0.0
mp-3114,Tb2(MoO4)3,3.6938
mp-31303,Pr4Se3N2,1.402699999999999
mp-31414,DySnAu,0.0
mp-31472,Rb5Hg19,0.0
mp-31480,Ca3(GaPd)2,0.0
mp-31908,Mn3Nb6O11,0.240599999999999
mp-32578,Ce2Se3,0.0
mp-3368,LiNb3O8,2.9482
mp-3444,ErTaO4,4.0463
mp-3570,NdPPd,0.0
mp-3605,Th(CoGe)2,0.0
mp-3715,CoGeTe,0.12959999999999902
mp-38280,LiTiO2,0.0
mp-3944,ZrAlNi2,0.0
mp-4326,KErS2,2.4051
mp-4502,Ta6Si7Ni16,0.0
mp-4614,Tb(SiAg)2,0.0
mp-4785,CeAl3Pd2,0.0
mp-4969,TbCoSi2,0.0
mp-504835,NbNiAs2,0.0
mp-505647,KGd(WO4)2,3.2666
mp-510274,Zr2Si4Ru3,0.0
mp-510595,Er5CoSb2,0.0
mp-511,PrGe,0.0
mp-5121,Nd2Te4O11,3.317799999999999
mp-5159,LiGa2Pd,0.0
mp-532085,Li2IrO3,0.0
mp-532120,Sb24(Cl7F17)5,2.5007
mp-540792,Ge2S3Br2,2.4625
mp-541202,TlCuAsO4,0.011800000000000001
mp-541289,Y2S3,1.5992000000000002
mp-541353,K2(TcS2)3,1.040899999999999
mp-542840,In2Si2Pb2O9,3.3503
mp-542881,Ce3(CuSn)4,0.0
mp-542985,Gd(CoSi)2,0.0
mp-550468,Co2P2O7,2.0878
mp-554168,KRb2MoF6,3.7861000000000002
mp-554226,Rb2U(MoO5)2,0.0
mp-554828,Na2Be(GeO3)2,3.4083
mp-555215,Mg2Mn(PO4)2,3.5416
mp-555338,BaMo2(PO6)2,3.017
mp-555537,Na3ErV2O8,3.6437
mp-555833,Hg3As8(S4Br3)2,2.1064
mp-556656,Mn3B7ClO13,0.5057
mp-556723,Na3Fe2(AsO4)3,2.185699999999999
mp-556782,Gd3CuSnS7,1.284899999999999
mp-557649,K2Ce(Si2O5)3,2.2231
mp-558030,KMo2Cl7O2,2.661299999999999
mp-558124,K2Mo(SO5)2,2.8773
mp-558128,KNd2NbO6,3.627799999999999
mp-558455,Na4Li5(BO3)3,3.826
mp-558487,GdP5O14,3.1654
mp-558609,Ce3Ta(ClO2)3,0.0
mp-558895,Cs2KVF6,0.0
mp-560120,Na2Pd(NO3)4,1.769899999999999
mp-560133,TlPb8Br9O4,2.9557
mp-560471,Zn2B2PbO6,3.326199999999999
mp-560657,RbLa9(IrO6)4,0.0
mp-560863,ThSe2O7,3.7518000000000002
mp-561350,AlBiSCl4,2.8809
mp-561527,Rb3Zr2P5S18,1.8916
mp-561620,Ag3AsS3,1.7201
mp-562442,Cs2SeO4,3.8216
mp-567370,Ce3Se4,0.0
mp-567538,YbCu2,0.0
mp-567638,TaPt3,0.0
mp-5677,Tb(MnSi)2,0.0
mp-567957,Sm4MgRh,0.0
mp-569320,Sm3Ge5,0.0
mp-569477,La10Al5Br4,0.0
mp-569903,CsEr(NbBr3)6,0.9558000000000001
mp-570276,ZrZn,0.023099999999999003
mp-571263,KIn9Co2,0.0
mp-571485,Tm(SiPd)2,0.0
mp-571637,K2Cd2Te3,1.3224
mp-573969,CsCeSiSe4,0.21079999999999902
mp-581533,Cs7(In2Bi3)2,0.3083
mp-581678,LiEu2Si3,0.0
mp-583476,Nb7S2I19,0.4354
mp-583724,Yb7Al5Ge8,0.0
mp-5916,Yb(SiNi)2,0.0
mp-592,TiRu,0.0
mp-601848,Fe11Co5,0.0
mp-606691,KU2P3O14,2.3917
mp-607436,ReCl3O2,1.8688
mp-617281,In4Te3,0.19770000000000001
mp-622258,RbV2SbO8,2.766499999999999
mp-6268,KTiPO5,3.0454
mp-627640,Eu(ClO4)3,0.0
mp-628782,V3Pb5ClO12,2.7967999999999993
mp-637378,Gd3InN,0.0
mp-640333,K49Tl108,0.04990000000000001
mp-643293,SrMgNiH4,1.909999999999999
mp-643790,CeNiSnH,0.0
mp-646450,TbCoSn,0.0
mp-647366,KICl4,2.2088
mp-667349,Sr3U11O36,1.7103000000000002
mp-669516,La10(ErS3)9,0.0
mp-675328,Ce4GeS3,0.0
mp-676637,Na2UI6,0.0
mp-676644,Yb(Ga3Te5)2,1.050999999999999
mp-676854,Ta14(CuS8)3,0.0
mp-680463,Rb4Pb9,0.303399999999999
mp-684623,Zr10C9,0.0
mp-686949,ThCr(IO5)2,2.706
mp-687204,NdReMoO8,3.398799999999999
mp-690799,Zr(TiH2)2,0.1416
mp-696114,CoCl2,0.09860000000000001
mp-697671,Ba6Mg7H26,2.9967
mp-7092,TiSi,0.0
mp-7283,LaB4,0.0
mp-753920,Tm2SeO2,2.1129000000000002
mp-761681,CrHSe3O8,2.8849
mp-768638,Dy3Sb5O12,3.158299999999999
mp-768674,Cs4Zr3Se14,1.5144000000000002
mp-8123,TmCuSi,0.0
mp-8175,KTlO2,0.8868
mp-836,TbZn,0.0
mp-8431,Ca(BRh)2,0.0
mp-849384,Li11V8(PO4)12,0.8757
mp-861604,Ca2TlPb,0.0
mp-861981,HoMgZn2,0.0
mp-862337,Sc2InAg,0.0
mp-862548,Sc2AlZn,0.0
mp-862779,Tc3Os,0.0
mp-862820,PaSi3,0.0
mp-862943,NaPmHg2,0.0
mp-862957,PmSbPd2,0.0
mp-862969,PmYMg2,0.0
mp-862995,Er8Ga3Co,0.042100000000000005
mp-864716,PaGaAu2,0.0
mp-864857,NbZnCo2,0.0
mp-864882,Yb2PdRh,0.0
mp-865077,NaCd3,0.0
mp-865463,Lu2AlOs,0.0
mp-865468,Pm2SiPd,0.0
mp-865496,VIr3,0.0
mp-865906,YbPmPd2,0.0
mp-865931,Ti2TcPd,0.0
mp-865944,ThSnRu2,0.0
mp-865992,YbSnRh2,0.0
mp-866166,Y2PdRu,0.0
mp-867138,EuSnAu2,0.0
mp-867236,Tb2IrPd,0.0
mp-867295,LiCeTl2,0.0
mp-867753,CuSbRh2,0.0
mp-867781,TaGaRu2,0.0
mp-867869,Sm2AgRu,0.0
mp-867881,ScTlRh2,0.0
mp-884,NdSi2,0.0
mp-8969,Mg2Ni3P,0.0
mp-9380,SrGe4O9,3.0655
mp-9381,Zr6FeTe2,0.0
mp-9521,Th7Te12,0.0
mp-954,BaB6,0.06230000000000001
mp-972327,Zr2CoOs,0.0
mp-972601,SmLuMg2,0.0
mp-972965,GdF3,2.8856
mp-973267,KTcO3,0.0
mp-973964,Lu2GaAg,0.0
mp-9745,Ba3NaRuO6,0.633099999999999
mp-977391,LiNd2Os,0.0
mp-978092,PrCuGe2,0.0
mp-978102,Pr2Co12P7,0.0
mp-978891,Sm2InAg,0.0
mp-978908,TbTmRh2,0.0
mp-982387,Pm2ZnHg,0.0
mp-982662,Eu2MgSi2O7,0.0
mp-983236,Pm2ZnOs,0.0
mp-9953,HfP,0.0
mp-998174,RbPdBr3,0.0
mp-998980,TiAlFeCo,0.120699999999999
mp-999145,SmNi,0.0
mvc-10055,CaMo2P2O9,2.7485
mvc-3453,SbF5,3.6795
mp-10032,Ge2Os,0.0
mp-1018691,Eu2H3Br,0.0741
mp-1019259,SrSnHg,0.0
mp-1020587,SrMg3SiN4,3.006999999999999
mp-1025,ThAu2,0.0
mp-1025158,K2PuO4,0.0
mp-10477,RbAg3Se2,0.057600000000000005
mp-1068664,ThCoSi3,0.0
mp-10755,TiFeSb,0.0
mp-1078089,Pd3(PbSe)2,0.0
mp-1078832,ZrGaNi,0.0
mp-1078889,La(AsIr)2,0.0
mp-1079392,CeCoSb2,0.0
mp-1079697,SmPRu2C,0.0
mp-1079824,Th(CoP)2,0.0
mp-1079889,ZnAg2SnS4,0.341699999999999
mp-1080612,GdAlCu,0.0
mp-1084847,TbTe3,0.0
mp-1086669,NiP2W,0.0
mp-1095100,U2SnIr2,0.0
mp-1095296,Dy4Te3S4,1.6716000000000002
mp-1095403,BaTbCuTe3,0.530999999999999
mp-1095422,YbBPt2,0.0
mp-1101773,NdAlAu,0.0
mp-1101816,Lu2Au,0.0
mp-1101970,TbRu2,0.0
mp-1102758,LuGaNi,0.0
mp-1103440,GdZnRh,0.0
mp-1103821,Cu5Sn2Te7,0.0
mp-1104806,Gd(AlC)3,0.0
mp-1105915,CsSnF3,3.8827
mp-1106082,LiCeSi2,0.0
mp-1106137,Eu7Au3,0.0
mp-1106301,Zr5CuSn3,0.0
mp-1120716,CdHg3Te4,0.0
mp-1133,V5S4,0.0
mp-11385,YFe5,0.0
mp-11393,Nb3Ga2,0.0
mp-11466,NaHg2,0.0
mp-1181527,Eu2HoTaO6,0.0
mp-1183162,AlFe3,0.0
mp-1183884,Eu2MgTl,0.0
mp-1183892,EuCl2,1.5166
mp-1184286,Eu2TlSn,0.0
mp-1184510,GdLuRu2,0.0
mp-1184532,GdTmIr2,0.0
mp-1184592,Hf2RePd,0.0
mp-1184831,HoTmRu2,0.0
mp-1185409,LiPmGa2,0.0
mp-1185446,Lu2TlIn,0.0
mp-1186307,NdHoMg2,0.0
mp-1186475,Pm2MgGe,0.0
mp-1186767,Ta2NbRe,0.0
mp-1187003,Sm2IrAu,0.0
mp-1188238,Tb2Ge5Ir3,0.0
mp-1188494,Eu2MgIrO6,0.0
mp-1189474,Y7Rh3,0.0
mp-1190072,Yb5CdCu2,0.0
mp-1192267,Ho8In3Co,0.034999999999999004
mp-1192417,BaGePbO4,3.4484
mp-1192794,Gd4InIr,0.0
mp-1193129,Lu2(Ni7B2)3,0.0
mp-1194337,Sr(LuSe2)2,1.4461
mp-1194475,La2U2Se9,0.0
mp-1194701,Cs2ZnSn3Se8,1.2553
mp-1194826,K2CdSnS4,1.4957999999999991
mp-1195072,K2Zn(SnSe3)2,1.5684
mp-1195469,BaGeS3,2.4494
mp-1195477,Yb3Si11Pt23,0.0
mp-1195505,Sc2Si4Mo3,0.0
mp-1195693,P2PdPbO7,0.5354999999999991
mp-1196001,NdV2IO9,2.5221
mp-1196422,Sr3Sn13Ir4,0.0
mp-1196686,Cs2U6Pd4S17,0.0
mp-1196688,Te3As2O11,3.195
mp-1196900,Sm3Co4Sn13,0.0
mp-1196909,MgFe2BO5,0.0
mp-1196980,Dy3Ga5,0.0
mp-1197082,Rb3Tm(SO4)3,5.3519
mp-1197536,Er(NO3)3,3.2822
mp-1197806,Ba16Re6O37,1.5967
mp-1198995,Sb3Pd8,0.0
mp-1199068,Pr(Cd10Ni)2,0.0
mp-1200326,Pr(In2Pd)2,0.0
mp-1200457,KMn6As7O24,1.657399999999999
mp-1201018,Ag3S4(O3F)4,0.0
mp-1201775,Eu(GaSe2)2,0.1126
mp-1201911,Tb5Zr3(Ni4As3)4,0.0
mp-1202129,Y11(In3Si2)2,0.0
mp-1202488,Cs4TeSe15,1.049999999999999
mp-1203382,Sn2W3Cl14,0.7641999999999991
mp-1203433,Hg3AsO5,1.371
mp-1203522,Cs2HgCl4,3.0746
mp-1203677,Ce(Cd10Ni)2,0.0
mp-1204245,Pr11Cd45,0.0
mp-1204248,InAgP2O7,2.4485
mp-1204502,Pr(TiAl10)2,0.0
mp-1204562,Y2Mo(SeO4)3,2.966199999999999
mp-1204805,Ga40GeMo8,0.0
mp-1205351,La4Se3N2,1.6668
mp-1205788,HoMgTl,0.0
mp-1206183,TbSiOs2C,0.0
mp-1207102,Sr(AlGa)2,0.0
mp-1207399,Zr3Tl2(CuSe4)2,0.37120000000000003
mp-1207592,Yb4(Al8Pt3)3,0.0
mp-1207614,Yb3Ni19B10,0.0
mp-1207685,Y6RhI10,0.08900000000000001
mp-1207785,Y3Ir,0.0
mp-1208029,Tm4MgNi,0.0
mp-1208056,Tm3(Si3Pd10)2,0.0
mp-1208181,Tl2PtI6,0.5823
mp-1208953,Sm2(Al3Co)3,0.0
mp-1209454,RbPr(SeO4)2,3.456899999999999
mp-1209942,Pr4CdNi,0.017299999999999
mp-1210024,Pr6Ni20P13,0.0
mp-1210377,Sc57Ru13,0.020799999999999003
mp-1210452,SCl4,2.6189
mp-12109,ZrRe2,0.0
mp-1210929,MnAg2SnSe4,0.0
mp-1211233,LiDy6B3O14,4.758999999999999
mp-1211290,La3Ta(Cl3O2)2,3.5581
mp-1211819,K3Hf4Ag2F23,0.6664000000000001
mp-1211941,K2TiZnO4,3.6557
mp-1212154,La23Cd4Ir7,0.0
mp-1212304,Ho4MgRh,0.0
mp-1212340,Ho2MnNiO6,1.8799000000000001
mp-1212572,GdWC2,0.0
mp-1212574,GdAlGe2O7,0.372399999999999
mp-1212853,DyAl3Ni2,0.0
mp-1212902,Dy4MgNi,0.0
mp-1212947,Er4MgNi,0.0
mp-1212960,Er2Sc3Si4,0.0
mp-1213285,Er5CuPb3,0.0
mp-1213374,CsEu(MoO4)2,0.07579999999999901
mp-1213682,CsEr(MoO4)2,4.028399999999999
mp-1213701,Cs3PdF5,2.0811
mp-1214035,Ce(Cu2P)2,0.0
mp-1214327,Ce2(Ga3Ru)3,0.0
mp-1214402,BaNdCuTe3,0.5331
mp-1214749,As3Pb5BrO12,2.9879000000000002
mp-1216272,Y16Mg3AlNi4,0.0
mp-1216688,U2AsS,0.0
mp-1216940,U2Ga10CoNi,0.0
mp-1216944,TiNb6Tl2O18,2.5986000000000002
mp-1217372,ThU(MnSi)4,0.0
mp-1217448,Th4P6PbO24,4.4716000000000005
mp-1217846,Ta20Pd9S50,0.0
mp-1218740,Sr2NbCoO6,1.5007000000000001
mp-1219169,Sm2ZnSb4,0.0
mp-1219616,Rb4TlSbCl12,0.9368000000000001
mp-1219828,Rb7VSiO8,2.4378
mp-1219872,Pr6Mg(GeS7)2,2.0186
mp-1220623,Nd2Si2PbS8,2.4105
mp-1220891,Rb2Sn4S9,1.6693