material_id,pretty_formula,band_gap
mp-753879,Pr2S2O,2.361199999999999
mp-754609,V2OF5,1.7338
mp-754614,LuNbO4,3.2724
mp-754856,Li7Y7ZrS16,1.7404000000000002
mp-755229,V4(OF3)3,1.6749
mp-755500,Li4AlCr3O8,3.1845
mp-755638,Li7Ni5O12,0.5345
mp-756167,V4CuNiO12,0.6125
mp-756725,Ba2CaI6,3.5732
mp-757244,MnCd9O10,0.0
mp-757458,Tl8Os8O27,0.0
mp-758482,V2Bi24O41,1.6562000000000001
mp-760250,VF5,3.0026
mp-765621,VF5,3.0717
mp-765944,Al15Fe9O32,2.208599999999999
mp-766124,BaV8O21,1.307599999999999
mp-766134,UH12(NO7)2,2.3813
mp-766234,P2WO8,2.955
mp-768345,Ba2B2O5,3.8413
mp-768763,Li4AlCr3O8,3.0792
mp-768864,KNdO2,3.8089
mp-769039,Dy2TeO6,3.0392
mp-769947,K4TiO4,3.3704
mp-770936,Ba2Sc2O5,2.8133
mp-772030,LiTiO2,0.0
mp-773843,LiTi2(PO4)3,2.2961
mp-774407,Hg2W2O7,2.2134
mp-776362,Zr2N2O,1.577299999999999
mp-776402,B10H13,3.206
mp-777750,Li32Mn13Cr3O48,1.2933
mp-777838,Li32Mn13Cr3O48,1.357899999999999
mp-777884,Li32Mn13Cr3O48,1.3508
mp-778052,Sm2TeO6,3.028299999999999
mp-778189,Li32Mn13Cr3O48,0.6766000000000001
mp-778973,Zn(NO3)2,3.339
mp-779144,Rb3HoO3,2.133899999999999
mp-779975,Hf2N2O,2.0039
mp-861911,Sb2S2O,1.3116
mp-864602,Nd2MgTl,0.0
mp-865150,MgCdAu2,0.0
mp-865414,Lu2ZnPt,0.0
mp-865526,TmSb(PbO3)2,2.7362
mp-865530,YThRu2,0.0
mp-865583,Y2Mg,0.0
mp-865900,Ti3Tl,0.0
mp-866081,MgSc2Os,0.0
mp-866297,EuCdAu2,0.0
mp-866517,Ce3MgAlS7,0.18349999999999903
mp-867418,ThPbAu2,0.0
mp-867640,Li4CoNi3O8,0.0654
mp-867779,Ta2CrFe,0.0
mp-867840,BeFeRh2,0.0
mp-8993,Sm2S2O,2.4438
mp-9405,K3SeO4F,3.9751000000000003
mp-944,AlB2,0.0
mp-956096,HfFe2,0.0
mp-971891,Zn2PdAu,0.0
mp-972121,Tm(Al2Cr)4,0.0
mp-972217,Ti2CuTc,0.0
mp-972549,SmLu3,0.0
mp-973603,Lu2ZnPd,0.0
mp-973893,Lu2TlHg,0.0
mp-975880,PrSmMg2,0.0
mp-976587,KP2AuS7,1.5546
mp-977205,NaTl2Pd,0.0
mp-978795,Sm3Hg,0.0
mp-978985,SnBr2,1.9058000000000002
mp-979287,TbLuHg2,0.0
mp-981530,YbPrPd2,0.0
mp-982869,PmYAl2,0.0
mp-984784,Ba2ZnCd,0.0
mp-985287,AgAu3,0.0
mp-9901,Sc3Co2Si3,0.0
mp-996993,CuBrO2,0.0
mp-997108,RbAgO2,1.1991
mp-998307,CsPdBr3,0.0
mvc-12183,Mg(NiO2)2,0.42740000000000006
mvc-6001,Ca(MoO2)2,1.8467000000000002
mvc-6726,CaSnP2O7,3.637
mp-1002570,KMnO2,2.0755
mp-1017629,MgNiH3,0.0
mp-1018899,PrSbPd,0.0
mp-1020179,Na6Si2O7,3.3133
mp-1025156,NpB6,0.0
mp-1025457,HfAl5Ni2,0.0
mp-1035281,Mg14CoNiO16,2.0385
mp-10597,Ag,0.0
mp-1078000,Mn(CrS2)2,0.0
mp-1079261,ErCuSb2,0.0
mp-1079267,LiHg3,0.0
mp-1079949,UAlPt,0.0
mp-1079988,La2Al2Ge,0.0
mp-1080586,Sn4Ir,0.0
mp-1096905,Ce4Al2O9,0.029399999999999003
mp-11021,GaAuO2,0.0
mp-1102408,PrAs2,0.026500000000000003
mp-1103038,SiIr2,0.0
mp-1103195,Sm2In8Pd,0.0
mp-1103791,Ho2MgSe4,1.3296000000000001
mp-1103919,CeMg12,0.0
mp-1106010,Lu2Co3Si5,0.0
mp-1112890,Cs2InBiI6,0.580699999999999
mp-1112943,Cs2AgSbBr6,1.2018
mp-1113459,Cs2PrAgCl6,3.8493
mp-1114662,Rb2NaScBr6,3.1403
mp-1114677,Rb3SbF6,3.8167
mp-1120725,CsPbBr3,1.9528
mp-1120729,RbGeCl3,2.5696
mp-1120745,NaTiF4,0.019299999999999002
mp-1120752,K2Fe4O7,0.895899999999999
mp-11497,TbMg2,0.0
mp-11581,Tm2NiAs2,0.0
mp-1173448,Re3Se2Cl5,0.9676999999999991
mp-1176421,MnZn4O5,0.5985
mp-1176910,Li7Mn4(P2O7)4,0.159999999999999
mp-1176957,Li7Mn4(P2O7)4,0.027399999999999
mp-1177528,Li3Ti7O14,0.0
mp-1177747,Li32Mn13Cr3O48,1.3173
mp-1177789,Li32Mn13Cr3O48,1.2861
mp-1179520,Sc5Ga3,0.0
mp-1180690,Na2Mg2NiH6,1.7116999999999991
mp-1181219,K3FeMo4O15,2.5237
mp-1181313,Ga2(TeO3)3,3.7828
mp-1183442,BiPd2Au,0.0
mp-1183647,CdAg3,0.0
mp-1183824,Ce3Th,0.0
mp-1184077,Er2ZnGa,0.0
mp-1184113,Er,0.0
mp-1184196,Er3Lu,0.0
mp-1184239,ErScZn2,0.0
mp-1184249,ErTmHg2,0.0
mp-1184284,ErTmCd2,0.0
mp-1184288,Eu2ZnCd,0.0
mp-1184466,EuIn3,0.0
mp-1184643,Ho2InHg,0.0
mp-1184754,K2RbBi,0.13990000000000002
mp-1184867,HoTmHg2,0.0
mp-1185062,La2MgCd,0.0
mp-1185131,LaPmMg2,0.0
mp-1185314,LiCd2Cu,0.0
mp-1185342,LiAg3,0.0
mp-1185502,LuMg3,0.0
mp-1185524,Li95Mn16O64,0.0316
mp-1185577,CsHg3,0.0
mp-1185602,La2GaAg,0.0
mp-1186040,Na,0.0
mp-1186139,NaEu2Tl,0.0
mp-1186142,NaHg3,0.0
mp-1186275,Nd3Lu,0.0
mp-1186310,NdEuAg2,0.0
mp-1186317,NdPd2Pb,0.0
mp-1186396,PaGaPt2,0.0
mp-1186613,PmLuMg2,0.0
mp-1186663,PmTmAl2,0.0
mp-1186695,Pr2TlHg,0.0
mp-1186832,PrNdIn2,0.0
mp-1186853,Rb,0.0
mp-1187091,Sr2TlZn,0.0
mp-1187492,TiTc2Sn,0.0
mp-1187523,Th2SbTe,0.0
mp-1187579,TmMg3,0.0
mp-1187670,TmScZn2,0.0
mp-1187798,Y3Ho,0.0
mp-1187857,YLuHg2,0.0
mp-1187878,YTmCd2,0.0
mp-1187891,Yb2GeAu,0.0
mp-1187946,ZnAg3,0.0
mp-1188667,YbAlO3,0.0
mp-1188909,EuP3,0.0
mp-1189066,Y5Si3H,0.0
mp-1189200,TmCuS2,1.761299999999999
mp-1189582,Y5Ni2Bi,0.0
mp-1191223,SnSb4S7,0.7078999999999991
mp-1191628,PW6Cl17,0.0
mp-1191705,Er2Si3Rh,0.0
mp-1191890,Gd3NbO7,2.3304
mp-1192447,Nd6Mg23C,0.0
mp-1192667,KAg2SbS3,1.709899999999999
mp-1193435,Na9Sn4,0.0
mp-1193988,Yb(YSe2)2,1.137299999999999
mp-1194279,Rb(WO3)3,0.0
mp-1194638,Ag3B5O9,1.8009
mp-1194845,K2U(Si2O5)3,0.11580000000000001
mp-1194878,NaIn(TeO3)2,2.985099999999999
mp-1194972,S2Xe(O3F)2,1.9427999999999992
mp-1195515,K2U(Si2O5)3,0.016
mp-1196424,Cd(PN2)2,1.2423
mp-1197207,Mn8Si8Mo3,0.0
mp-1197231,ReBi9O17,2.1502
mp-1197271,EuV2IO9,0.006299999999999001
mp-1197677,Ba2Mo15Se19,0.0
mp-1198079,VP3(Pb2O7)2,2.222
mp-1198460,Ba7Ga5AgSe15,1.904
mp-1198474,Dy5Bi3,0.0
mp-1198538,Ta3Br7,1.2644
mp-1199237,PrSbMo2O9,3.2880000000000003
mp-1199267,TbFeSb3,0.0
mp-1199841,Dy3InS6,1.044299999999999
mp-1200062,Ga16Rh3,0.0
mp-1200076,Cr2XeF10,1.2849
mp-1201056,BPb3O4F,2.353799999999999
mp-1201493,Rb11Mn8O16,0.148599999999999
mp-1202044,Dy11(Ni10C)6,0.0
mp-1202124,Ba6Zr(Zn3S7)2,1.8259
mp-1202228,Dy5Pt4,0.0
mp-1202538,Tb3Ge13Ir4,0.0
mp-1203111,Dy3Ge13Ir4,0.0
mp-1203416,Sm(Al10Cr)2,0.0
mp-1203434,Na2Fe2F7,1.4241000000000001
mp-1203755,Cs11Fe10S16O,0.0
mp-1203858,Rb8Mo33S37,0.0
mp-1204693,Ba18In8(S7F6)3,2.290899999999999
mp-1205681,K2NaPdF6,0.5881000000000001
mp-1206353,Zn2GaAgSe4,0.6409
mp-1206899,Ho3(FeGe)4,0.0
mp-1207110,K2TaNbO6,1.3878
mp-1208413,Tb5SbPd2,0.0
mp-1208780,TbZr6(PO4)9,3.7259
mp-1208990,Sc2CoB2Ir5,0.0
mp-1209708,Pr4MgNi,0.0
mp-1210038,Nd4MgNi,0.0
mp-1210043,PrIn2Cu9,0.0
mp-1210058,Ni10SbP3,0.0
mp-1210064,Nd2Ta3(SeO4)2,0.9677999999999991
mp-1210670,Na3Pr(AsO4)2,3.5708
mp-1210874,Lu2Cu(GeO3)4,0.7393999999999991
mp-1211009,Mg5As4(H11O13)2,3.8513
mp-1211358,LaSbIr,0.0
mp-1211476,La4MgRh,0.0
mp-1211808,K6Na14Tl18Hg,0.0
mp-1212011,InSbSe3,1.1027
mp-1212166,LiEu(WO4)2,0.0
mp-1212311,Ho3Co2Si3,0.0
mp-1212389,Ho(Fe2Ge)2,0.0
mp-1213114,CuAgGeSe3,0.069299999999999
mp-1213598,Ho13(Mg2Zn27)2,0.033199999999999
mp-1215623,ZnFe4CoO8,1.5943
mp-1215675,Zn4CoO5,0.340999999999999
mp-1215804,Zn(InAu4)3,0.0
mp-1215853,Yb(TmSe2)2,1.1118000000000001
mp-1215984,YTm3(SnPd2)4,0.0
mp-1216093,Y4TiSn3O14,2.7224999999999993
mp-1216321,UCoNi,0.0
mp-1216420,VCrGeC,0.0
mp-1216456,VCu12As3S16,0.365899999999999
mp-1216971,TiNb2O7,1.9348
mp-1217291,TePb2Se,0.673299999999999
mp-1217533,TbUTe3,0.0
mp-1217591,YbCd6,0.0
mp-1217674,Tb2SiGe,0.0
mp-1217892,TaNb,0.0
mp-1218275,SrEuTe2,0.10710000000000001
mp-1218290,SrEu4Se5,0.0
mp-1218307,Ta3V3(Ni10B3)4,0.0
mp-1218416,SrCe2(SF2)2,0.0
mp-1218564,Sr4Al6CrO16,2.6143
mp-1218569,Sr5Zn(PbO4)3,1.1954
mp-1218717,Sr2NdMn2O7,0.0
mp-1218960,Sn2SeS,0.827299999999999
mp-1218970,Sn2PdAu,0.0
mp-1218983,SmThB12,0.0
mp-1219095,SmBiRu2O7,0.0
mp-1219331,ScTi4(NiSn)5,0.0
mp-1219446,SbAsPd,0.0
mp-1219512,RuRhS4,0.0
mp-1220147,Pr12Ge5S28,0.9222999999999991
mp-1220214,NdBiRu2O7,0.0
mp-1220286,Nd3GdAl4O12,2.966
mp-1220382,Nb5(SeS)2,0.0
mp-1220909,NaTa4Bi5O18,2.9275
mp-1221485,Mo2SeS3,1.0635
mp-1221914,Mn2CdTeO6,0.0
mp-1221916,Mn3V2O8,1.8176
mp-1222037,MgIn2,0.0
mp-1222104,Mn4Co4Si3Ge,0.0
mp-1222109,Mn2Co2SiGe,0.0
mp-1222125,Mg4SiGe,0.383899999999999
mp-1222398,LiGa(GeSe3)2,1.3639000000000001
mp-1222555,LuFe2Co2B,0.0
mp-1222610,Li2MgZn,0.0
mp-1222946,LaCeRh4,0.0
mp-1223115,La4Sb2Pb,0.0
mp-1223117,La8Te3SeO8,2.066099999999999
mp-1223212,La6CuSb15,0.0
mp-1223625,KBa3(FeAs)8,0.0
mp-1223738,K7Rb5(Fe2O5)2,1.359999999999999
mp-1223815,HoCuSe2,1.1508
mp-1223991,Ho2VPO8,3.0254
mp-1224051,In5SnSb3Te,0.066899999999999
mp-1224350,Ge(SbTe2)2,0.36160000000000003
mp-1224644,GdHoAl6,0.0
mp-1224655,GdY(FeO3)2,1.5816
mp-1224737,Fe2CuNiPt4,0.0
mp-1225403,Dy(CuSe)3,1.2721999999999989
mp-1225623,Er3ScS6,1.0269
mp-1225783,Cu3Ag3(PS4)2,0.9850000000000001
mp-1225866,Cu2GeSe3,0.067899999999999
mp-1225996,EuGdTi2O7,0.0037
mp-1226305,CoNi2(PO4)2,2.9225000000000003
mp-1226578,Cr19S30,0.0
mp-1226788,CdGeAsP,0.640699999999999
mp-1227085,CaYb3(InGe2)2,0.0
mp-1227408,Ca(LuTe2)2,0.6569
mp-1227439,Bi4(TeSe)3,0.3296
mp-1227525,CaLa2(FeO3)3,0.0
mp-1227761,Ca3SmMn4O12,0.0
mp-1228239,Ba4La2Cu6O13,0.0
mp-1228362,Ba2SrTi3O9,1.8082999999999991
mp-1228511,Ba2Ti4Cr2O13,1.8482999999999992
mp-1228851,BP5(Pb3O10)2,3.5558
mp-1228890,AlInSb2,0.3185
mp-1228953,Al2GaN3,3.4048
mp-1229118,Ag6SnSb,0.0
mp-1232083,Dy2MgSe4,1.2884
mp-1232424,PmGdMg2,0.0
mp-1235877,LiO8,0.0
mp-1238786,Li(CrS2)2,0.0
mp-1239253,NbCr3(AgS4)2,0.0
mp-1250007,SiSe2,2.468
mp-1257498,Ca2AlNiO5,0.0
mp-1279034,SrLa(FeO3)2,0.24039999999999903
mp-1282190,Sr2VMoO6,0.3704
mp-1283043,CoO2,0.0
mp-1287707,Na(CoO2)3,0.8924999999999991
mp-13119,CdO,0.0
mp-13583,Sc2Si2Ru,0.0
mp-1567945,ZnCo(GeO3)2,1.6144
mp-15837,Nb5Se4,0.0
mp-16226,TaS2,0.0
mp-1640532,LiNi2O3,0.0
mp-1641158,Sr6Ti3FeO14,0.2639
mp-1661716,Mg2Ta2FeO8,3.070899999999999
mp-17059,K3Nb3Si2O13,2.2255
mp-17450,Cs3NiF7,0.873499999999999
mp-17812,Sm2SiTeO4,1.8579999999999992
mp-18209,Pr2(ZnGe2)3,0.0
mp-18296,Ba5Dy8Zn4O21,3.3941
mp-18619,Na2Ge2Se5,1.5601
mp-18776,CaCoP2O7,2.854
mp-19030,La4V5(Si2O11)2,0.8078000000000001
mp-19046,KMnO4,2.0839
mp-19050,Ca2MnO4,0.375
mp-19109,FePO4,2.717
mp-19349,NaMn(SiO3)2,2.8847
mp-19357,LaCrO3,0.0
mp-19418,VCrO4,2.0549
mp-19911,TmIn5Co,0.0
mp-20529,Ba3NaIr2O9,0.0
mp-20659,Sr3NiPbO6,1.2262
mp-21005,GdIn,0.0
mp-21941,Th(Fe2P)2,0.0
mp-21978,Na2AlCoF7,3.4268
mp-22305,NaCu3(RuO3)4,0.0
mp-22630,Sc2PbS4,1.738399999999999
mp-22999,Hg3(ClO)2,0.3047
mp-23037,CsPbCl3,2.395499999999999
mp-23508,Rb2CuCl4,0.0695
mp-2430,ZrGe2,0.0
mp-25237,Mn(PO3)3,1.8006000000000002
mp-2582,TiSi2,0.0
mp-26051,LiMo8(P2O11)4,0.3851
mp-261,Ba3Al5,0.0
mp-26223,Li4Cu(PO4)2,0.0398
mp-27531,TeMo5O16,1.3735
mp-27649,BaU2O7,2.0765
mp-27652,ThI2,0.0
mp-27941,AgClO3,2.6499
mp-28130,Nb(PS4)2,0.0
mp-285,Mo17O47,0.0
mp-28639,Tl2GeTe5,0.0
mp-28848,Ca2Bi2O5,2.4939999999999998
mp-28867,Ba7Ir6O19,0.0
mp-29318,PW3O11,0.0
mp-29437,Zn4As2O9,1.6613
mp-29469,Pd(Se3Cl)2,1.345399999999999
mp-30145,Rb2Bi8Se13,0.5645
mp-30163,La2Mo4O15,3.230499999999999
mp-30285,Sb2MoS,0.0
mp-31046,Ho3CrB7,0.0
mp-31557,LiCo6P7O24,2.9428
mp-32531,Ba2V3O9,1.574599999999999
mp-32861,Rh3Se8,0.0
mp-3408,CeAlO3,0.0
mp-36216,Ag2S,1.1307
mp-36903,KNO3,2.976499999999999
mp-504336,Cr5(PO4)4,1.6393
mp-504621,Eu3Sn2S7,0.0
mp-504948,LiScGeO4,3.9614000000000003
mp-505572,Al13(CrSi)4,0.0
mp-530149,Ca12Al14O33,1.974199999999999
mp-530165,Li13Ti22O48,0.0
mp-540782,V4As3,0.0
mp-541180,Te3Pt2,0.0
mp-541510,W2Se17Cl12,0.0
mp-541993,V2Se2O9,2.1685
mp-542334,V5O9,0.7822
mp-542388,Lu7Te,0.0
mp-542730,V8C7,0.0
mp-545788,Ba3ZnN2O,0.661899999999999
mp-553887,NaV2Bi3O10,2.6684
mp-555084,GdWClO4,2.5896
mp-555242,Rb6U2Mo4O21,2.1909
mp-555302,CsFeF3,3.424699999999999
mp-555844,MnSbS2Cl,0.0
mp-556010,LuMoClO4,2.8871
mp-556667,FeMoO4,1.5196
mp-557049,CdSbS2Cl,1.670799999999999
mp-557071,KBi6ClO9,2.3531
mp-557226,BaMo2(PO4)4,2.700599999999999
mp-557238,MgV2PbO7,2.5098000000000003
mp-557805,MnBiS2Br,0.8391000000000001
mp-558174,TlSb3(AsS4)2,1.534
mp-558368,AgBi2S3Cl,0.9612
mp-558373,PrNb3O9,2.848899999999999
mp-558580,Na2Zn(SiO3)2,3.611799999999999
mp-558759,Cd4Te6Cl6O13,3.311699999999999
mp-558802,Hg2MoO4,1.9134000000000002
mp-559005,NaAsH4O5,3.8019
mp-559272,K3Sb7(SO3)3,1.8305
mp-559332,BiTeIO3,2.411699999999999
mp-559511,Cr3B7ClO13,2.8322000000000003
mp-559549,K2LaNb5O15,1.8386999999999991
mp-559976,Ta2CS2,0.0
mp-560074,NaYbP2O7,0.0
mp-560199,MnSiO3,2.6466000000000003
mp-561124,Ho3Se4O12F,3.7087000000000003
mp-562412,Ag3F8,0.279099999999999
mp-567478,MnSbSe2Br,0.6442
mp-567620,TlCoCl3,0.0
mp-567653,Ti3Ni4,0.0
mp-569289,Hg,0.0
mp-569511,NiTePd,0.0
mp-5699,K2CuF4,0.0
mp-571247,Al3Mo,0.10940000000000001
mp-571598,Ga2Au7,0.0
mp-572722,Cs11Rb7O3,0.0
mp-572763,TaP4(SCl)5,2.1359999999999992
mp-573073,Cs7Cu6F19,0.22290000000000001
mp-573588,CdI2,2.3761
mp-5746,MgTe2O5,2.3736
mp-580102,Gd2Ni17,0.0
mp-582708,Cs3GeAsSe5,1.773699999999999
mp-583278,Cs3Mo15Se17,0.0
mp-605646,RbBa2N15,3.8487
mp-613,Te2Pd3,0.0
mp-621024,Gd6C3Cl5,0.0
mp-636525,Zr7Ni10,0.0
mp-637427,PrIn2Pd,0.0
mp-638,SrZn5,0.0
mp-641661,XeF6,2.5833
mp-643022,Rb3H5Pd,2.7413
mp-652196,Cu2Bi4Pb2S9,0.567299999999999
mp-672671,PbI2,2.3494
mp-674373,Rb2U2O7,1.6521
mp-676564,NdTh9O20,0.0
mp-679983,CsP4N7,3.584499999999999
mp-680443,K4Pb9,0.281099999999999
mp-680956,Gd6Ta4Al43,0.0
mp-685220,U11Se20,0.0
mp-685871,Pr(FeSb3)5,0.0
mp-704102,MoSO6,3.0618
mp-721727,NaBH8O7,3.9755000000000003
mp-745139,Na2Cr(HO)8,3.2445
mp-753662,K2Mg2O3,2.888
mp-753779,LiMn2(PO4)2,0.0
mp-755719,V4O5F7,1.5704
mp-755795,Li2CrO3,1.744199999999999
mp-756107,Li2Fe3SbO8,1.3365
mp-757877,V2GaO5,0.4383
mp-758845,Ba5Nb2O10,2.370199999999999
mp-759200,V4(OF3)3,1.6445
mp-759675,NaCo2P3O10,2.3565
mp-761149,LiMnF5,0.45920000000000005
mp-762304,BiOF,3.201699999999999
mp-764992,Co29Ge13O56,0.0
mp-768142,Li13Nb14ZnO42,0.0
mp-768486,Sb2(SO4)3,3.6732
mp-768936,Sn2(SO4)3,2.3405
mp-769881,Li3CrF6,3.936099999999999
mp-770748,Gd3TaO7,2.6961
mp-770843,VCrO3,0.014300000000000002
mp-770855,VCrO3,1.4702000000000002
mp-771321,Cs4GeO4,2.5306
mp-772206,Hg2W2O7,2.3069
mp-774539,LiTi2(PO4)3,2.604599999999999
mp-774894,Na5LiV6O18,3.159799999999999
mp-775025,MnCu(PO4)2,0.0
mp-775327,Li2MnV3O8,1.5658
mp-775844,Zr2N2O,1.5814
mp-776510,Li3Sb3P8O29,2.6023
mp-776692,LiFe2F7,3.0811
mp-777770,Li32Mn13Cr3O48,1.2857
mp-777837,Li32Mn13Cr3O48,1.3563
mp-778088,Li32Mn13Cr3O48,1.3149
mp-849710,Li7Fe8(BO3)8,1.4293
mp-8566,Ag,0.0
mp-861505,Pr2MgTl,0.0
mp-861913,LiDy2Al,0.0
mp-862660,LiEr2Rh,0.0
mp-863250,TaMn2Ge,0.0
mp-864974,Hf2CuOs,0.0
mp-865281,Tm2AgPt,0.0
mp-867154,BP4(SBr)3,2.677699999999999
mp-867205,LiGa3,0.0
mp-867229,RbSn3,0.0
mp-867787,RbTl2Bi,0.0
mp-867800,AcSe3,0.0
mp-971836,Zn2NiIr,0.0
mp-972971,LaTlHg2,0.0
mp-973198,Na,0.0
mp-973430,LuScZn2,0.0
mp-973689,Ho3Lu,0.0
mp-974065,LuScPd2,0.0
mp-975769,PrYZn2,0.0
mp-975883,PrNdHg2,0.0
mp-975904,Li3Cd,0.0
mp-976143,PrDyZn2,0.0
mp-976344,Nd2ZnGa,0.0
mp-976828,MgPb3,0.0
mp-977115,NaSrHg2,0.0
mp-978100,Pr2InAg,0.0
mp-978532,CuSiRh2,0.0
mp-979432,YLuCd2,0.0
mp-980392,TmScHg2,0.0
mp-980649,TiNbRu2,0.0
mp-982010,Pr2CdAg,0.0
mp-982380,Li2Mg,0.0
mp-982880,Pm3Y,0.0
mp-9851,HoP5,0.1632
mp-989602,LaReN3,0.0
mp-989782,Cu,0.0
mp-990448,C,9.9999999999989e-05
mp-997054,CuBiO2,1.109
mvc-14383,CaCr2F12,1.354699999999999
mvc-7973,CaMnAs2O7,1.553999999999999
mvc-93,Ca(MnS2)4,0.0
mp-1003319,CaMn8O16,0.1109
mp-1008555,AlCu3,0.0
mp-10139,Sc3SnB,0.0
mp-1018704,GdAlZn,0.0
mp-1019269,Sr2H3I,2.1454
mp-1025558,CeNiSn2,0.0
mp-10339,SrNbO3,0.0
mp-1040425,C,0.0001
mp-10409,Ba4Nd2Cd3Se10,1.5191
mp-10435,Y(AlSi)2,0.0
mp-10504,ScB4Os3,0.0
mp-1062939,CoO2,1.1238
mp-1070103,Hf2Pt3,0.0
mp-1075943,Ba3Sr5Ti8O24,1.728399999999999
mp-1077322,BaAg2,0.0
mp-1078702,EuAs3,0.0
mp-1079249,TbH3,0.0
mp-1079250,SmNiSb2,0.0
mp-1079776,Hf2Co7,0.0
mp-1080173,Ce(CuSn)2,0.0
mp-1080722,Nd2CdCu2,0.0
mp-1080831,AsPd2,0.0
mp-1084775,ScSnPt,0.0
mp-1091389,EuInPd,0.0
mp-1091415,Ge,0.0
mp-1095074,Ba2GdMoO6,0.0
mp-1095491,YCoSn,0.0
mp-11012,Sr(BS2)2,3.0079
mp-1102731,YbCd2,0.0
mp-1105162,BaFe2(PO4)2,3.5236
mp-1105170,SnBr2,2.4179
mp-1106180,Re7B3,0.0
mp-1106213,Nd2MgIrO6,0.0
mp-11110,YbAl3(BO3)4,0.0034000000000000002
mp-1111484,Rb2TlCuBr6,0.0
mp-1113543,Cs2AgAsCl6,1.6059999999999999
mp-1113700,Rb2YAgCl6,3.8124000000000002
mp-1147724,Li4Zn(PS4)2,2.718
mp-1174246,Li7Co5O12,0.484
mp-1176494,MgV2O6,2.6327
mp-1176654,LiMnF4,1.323
mp-1177345,Li4MnNi3O8,0.0
mp-1179918,Pr(BRh)4,0.0
mp-1183145,AcPdO3,0.0
mp-1183204,Ba2CdHg,0.0
mp-1183268,AcEuMg2,0.0
mp-1183573,CaYbCd2,0.0
mp-1183661,Cd3Hg,0.0
mp-1183877,Eu2CdGa,0.0
mp-1184062,Dy2TlZn,0.0
mp-1184102,Er2InHg,0.0
mp-1184135,DyTmHg2,0.0
mp-1184143,DyTm3,0.0
mp-1184171,ErAl3,0.0
mp-1184261,EuBiAu2,0.0
mp-1184416,Gd2ZnRh,0.0
mp-1184497,GdDyRh2,0.0
mp-1184690,Ho2MgRu,0.0
mp-1184870,InAgAu2,0.0
mp-1184899,HoTm3,0.0
mp-1185021,LaPmRu2,0.0
mp-1185200,Li3Au,0.0
mp-1185241,LiY2Tl,0.0
mp-1185304,LiAlZn2,0.0
mp-1185408,LiPrZn2,0.0
mp-1185530,LuZr3,0.0
mp-1185824,MgAgAu2,0.0
mp-1186236,Nd2CdAg,0.0
mp-1186255,Nd2TlHg,0.0
mp-1186933,Sc2CdGa,0.0
mp-1187077,SnRh3,0.0
mp-1187090,Sr2LiRh,0.0
mp-1187231,Sr2ZnIn,0.0
mp-1187299,Tb3In,0.0
mp-1187599,Tm2ZnPd,0.0
mp-1187650,Tm2ZnIn,0.0
mp-1187710,Y2MgCd,0.0
mp-1187823,Tm2InHg,0.0
mp-1187876,YRh2Pb,0.0
mp-1187877,Yb2AgSb,0.0
mp-1188285,HoGa3,0.0
mp-1188696,Ho2Al3Ge4,0.0
mp-1190434,Li2IrO3,0.0
mp-1190462,Gd2Al3Ge4,0.0
mp-1193767,Hf9W4S,0.0
mp-1194182,Hf4Si7Ni4,0.0
mp-1194232,K4Eu(PSe4)2,0.111499999999999
mp-1194869,NbTlV2O8,2.4078
mp-1195335,Na2Fe3(PO4)3,1.693499999999999
mp-1195344,Ba4Ga4SnSe12,1.3292000000000002
mp-1195375,Na3YbSi2O7,0.003899999999999
mp-1195680,Ba7Ga4P9,0.0
mp-1195928,Ce2CuBiS5,0.0
mp-1195946,Cu7Se2(Cl3O4)2,0.0
mp-1195952,VPH5O7,2.0119
mp-1196065,Cs2I4O11,2.8924000000000003
mp-1196496,Ho5Bi3,0.0
mp-1196881,Li2TeWO6,3.6398
mp-1196898,Sm4(SiS4)3,2.1035
mp-1197095,Si(PbO2)2,2.4651
mp-1198091,Hf7Ni10,0.0
mp-1198276,AgSb3PbS6,1.116299999999999
mp-1198511,Tb3Co4Ge13,0.0
mp-1199162,La2US5,0.0
mp-1199277,DyAu6,0.0
mp-1199812,Sm2Ni22C3,0.0
mp-1199830,KCd(BH4)3,3.9466
mp-1203362,Ca9Mg(PO4)7,0.0
mp-1203591,TcI4,0.0
mp-1204427,Cu2Bi8Pb6S19,0.34799999999999903
mp-1204834,Pr11C11Cl7,0.0
mp-1205130,Re2S2O13,2.0792
mp-1205188,NdCO4,0.14650000000000002
mp-1205582,Sr2CrOsO6,0.0
mp-1205716,Pr2MgPd2,0.0
mp-1205767,Sr2MnReO6,0.326399999999999
mp-1206368,TbPd2Pb,0.0
mp-1206480,Er2NiAs2,0.0
mp-1206713,Al2Zn,0.0
mp-1206730,Sr2MgMoO6,2.2149
mp-1207381,Zr(SiPd)3,0.0
mp-1207937,Y10B7C10,0.0
mp-1208400,Ti5MnSn3,0.0
mp-1208861,Sm3HfSb5,0.0
mp-1209139,Sb4Te7Pb,0.49559999999999904
mp-1209290,SmCO4,0.17300000000000001
mp-1209498,RbP11,0.6393999999999991
mp-1209633,Rb2Ti2(PO4)3,0.017900000000000003
mp-1209722,Sm5CuPb3,0.0
mp-1210009,Nd4MgPt,0.0
mp-1210482,Pr2InCuSe5,0.5587
mp-1210809,Na3Nd(AsO4)2,3.6022
mp-1211185,Li3Ce2(BO3)3,0.23449999999999901
mp-1211199,Li4(AlCu2)3,0.0
mp-1213237,HoZr6(PO4)9,3.7431
mp-1213542,Na16Zn11Sn16,0.0349
mp-1213567,DyZr6(PO4)9,3.6918
mp-1213750,Cr5Te8,0.0
mp-1213979,Cd3Ga2(GeO4)3,1.7373
mp-1214016,Ca5Sn3,0.0
mp-1214181,Ca2Nd3Si3O13,0.0
mp-1214495,Ba3TiO5,2.7948
mp-1214986,Ag3Mo3AsO13,1.7754
mp-1215192,ZrTiCuS4,0.0
mp-1215506,Zr2CrCo3,0.0
mp-1215573,Zr2CoS4,0.0
mp-1215939,YCuSi2Ni,0.0
mp-1216357,VFe2(CuO2)3,0.866499999999999
mp-1216635,TiSnIr,0.0
mp-1216689,TlCr5Te8,0.0
mp-1216807,Tm2Mn3Sb3O14,1.3567
mp-1216835,Tl(V3S4)4,0.0
mp-1216961,V9InS12,0.0
mp-1217147,Tl(CoSb3)16,0.0
mp-1217240,U3(PS4)4,0.0
mp-1217532,Te4Mo(OF4)5,2.9333
mp-1217850,TaVCo,0.0
mp-1218273,SrCuGe,0.0
mp-1218293,SrEuSi4,0.0
mp-1218368,SrCaPbO4,1.928
mp-1218638,Sr3Ca3(Ru2O7)2,0.0
mp-1218705,Sr2TaFeO6,2.0867
mp-1218753,Sr2NdMn2O7,0.0
mp-1218915,SnTe2Pb,0.40229999999999905
mp-1219178,Sm3ErS4,0.0
mp-1219452,ScTl2Mo15S19,0.011099999999999001
mp-1220295,Pr4In5Cu19,0.0
mp-1220697,Nb2AlB6,0.0
mp-1220833,Pr9Ni24Sn49,0.0
mp-1221398,Na2Zn11(MoO4)12,3.3386
mp-1221575,MnZn4O5,0.12189999999999901
mp-1222376,LiZnBO3,3.522999999999999
mp-1222704,LaZnAgP2,0.5989999999999991
mp-1222771,Li3(WO3)8,0.0
mp-1222925,LaPr3(CoP)8,0.0
mp-1223023,LaEuAl4,0.0
mp-1223135,La3NdCr4O12,2.4105
mp-1223346,La4Ti5(TeO8)3,1.5705
mp-1223411,La4Ni3Sn8,0.0
mp-1223696,InI2Br,1.7850000000000001
mp-1223766,K2Ba(FeAs)6,0.0
mp-1224043,In2AgS3Br,0.7004
mp-1224164,Ho6Mg(GeS7)2,2.122
mp-1224346,Hf3ScSi4,0.0
mp-1224849,Ga2Ag2TeSe3,0.2366
mp-1225033,FeMo3PtN,0.0
mp-1225151,EuV2BiO8,0.0
mp-1225323,Dy2InAg,0.0
mp-1225490,ErAlGa,0.0
mp-1226064,CoNiS4,0.0
mp-1226346,Cr3(TeSe)2,0.0
mp-1226348,Er9Al5S21,2.3131
mp-1226365,Cs2Cu3NiF10,0.5858
mp-1226554,CeU2O6,0.0
mp-1226564,CeIrOs,0.0
mp-1226635,CeEuAl4,0.0
mp-1226673,CeZnNi4,0.0
mp-1226938,Ce2In2PdRh,0.0
mp-1227179,CaLa(GeIr)4,0.0
mp-1227301,CeY(GePt)4,0.0
mp-1227395,Ca(TmTe2)2,0.6193000000000001
mp-1227414,Bi(SbTe2)3,0.258899999999999
mp-1227520,Bi3Sb(WO6)2,1.4127