material_id,pretty_formula,band_gap
mp-1220791,Nd14Zn43Sn3,0.0
mp-1221019,NaNb4Bi5O18,2.7619
mp-1221424,Na2(TaSe2)3,0.0
mp-1222048,MgFe(CO3)2,3.9978000000000002
mp-1222172,Mg3Au13,0.0
mp-1222878,LaTaTiO6,2.9171
mp-1223147,La4Cu5As8,0.0
mp-1223934,HoUTe4,0.0
mp-1224365,KIn7S8,1.1846
mp-1225956,Er2PbS4,2.198
mp-1226037,CoNiP,0.0
mp-1226852,Cs2Sb8S13,1.6640000000000001
mp-1227729,BaSiAu,0.0
mp-1228217,Ba4Cu11(Te4S)2,0.0
mp-1228287,Ba7Cd31,0.0
mp-12543,Dy3Pd2,0.0
mp-12645,LiHoO2,4.418299999999999
mp-12704,TbGaPd,0.0
mp-12710,PrZnPd,0.0
mp-12896,NdAl4Co,0.0
mp-1289745,Ba2FeMoO6,0.9037000000000001
mp-12972,Zr6Sb2Pt,0.0
mp-1306165,Li2Mn3GaO8,0.39530000000000004
mp-1307768,LiMn(CO3)2,0.9213999999999991
mp-13407,CeAgPb,0.0
mp-13696,EuCuO2,0.0
mp-1377,ThCu2,0.0
mp-13875,Al8(Pb3O7)3,2.8746
mp-14835,Nd4Si2S3O7,2.581299999999999
mp-14880,La2Ta3(SO4)2,0.7816999999999991
mp-15205,Dy2Si5Ni3,0.0
mp-15237,Tb4C5,0.0
mp-15694,PaAs,0.0
mp-15987,Hf3(Cu2Si)2,0.0
mp-16721,TmAl,0.0
mp-16747,LuAgPb,0.0
mp-16753,LuCuPb,0.0
mp-16929,Pr3Si6N11,3.081
mp-17160,DyPtF7,2.3331
mp-17288,Li2ZnSiO4,3.783699999999999
mp-17355,Sr3GdRhO6,2.03
mp-17567,Ce2(ZnGe2)3,0.0
mp-17749,V2HgO6,2.0183
mp-17905,Cs2Hg6S7,0.6230999999999991
mp-18471,Sr2UO5,2.1978
mp-18583,Ti4Si7Ni4,0.0
mp-18614,In3Rh,0.0
mp-18628,Dy5B2C5,0.0
mp-18647,Nd3Ti3(SeO4)2,0.0
mp-1918,FeRh,0.0
mp-19315,Sr2MnWO6,1.9448999999999992
mp-20016,SmCoO3,1.332399999999999
mp-20238,Th(FeGe)2,0.0
mp-20328,U3Se4,0.0
mp-20416,SmFeB4,0.0
mp-20668,Dy(MnGe)6,0.0
mp-20707,Gd(CuO2)2,0.0
mp-20730,HfCo2Sn,0.0
mp-20845,Dy2Sn2O7,2.9259
mp-20913,UGeS,0.0
mp-21198,DyAgSn,0.0
mp-21323,DyGeIr,0.0
mp-21335,UTe2,0.0
mp-21427,GdPd3,0.0
mp-21883,VGaFe2,0.0
mp-21899,UZnNi4,0.0
mp-21900,Ce(SiIr)2,0.0
mp-21902,Th2FeB10,0.0
mp-21945,Ge3Ru2,0.36310000000000003
mp-22032,TbInIr,0.0
mp-22151,BaGePt,0.0
mp-22203,SmMnO3,1.467099999999999
mp-2221,Zr2Ag,0.0
mp-22286,Ag5(PbO3)2,0.0
mp-22441,Ba2MgReO6,0.0
mp-22767,ThGa4Co,0.0
mp-2290,NdRh2,0.0
mp-23100,Sr2LuBiO6,1.9569
mp-23319,RbVCl3,0.40280000000000005
mp-23407,Hg(IO3)2,2.714
mp-23549,Bi3B5O12,3.2839
mp-23930,H4CSN2,3.6595
mp-24192,ErH2,0.0
mp-24426,HgH2SeO5,1.4897
mp-2540,VTc,0.0
mp-2663,Nb3Pt,0.0
mp-27228,Tl6Si2O7,1.600999999999999
mp-2776,Ga2Au,0.0
mp-27994,HgBrO3,3.2228
mp-28478,NaTe3,0.6985
mp-28480,Sc2NCl2,0.0
mp-28669,Mn(SeO3)2,1.5967
mp-28747,Y3RuI3,0.0
mp-28800,K2Bi8Se13,0.9682000000000001
mp-2881,Tb(GeRh)2,0.0
mp-29132,RuCl2O,0.0
mp-29313,Ta4P4S29,1.0363
mp-29395,NaAlI4,3.4482
mp-2956,Co2(GeS)3,0.5423
mp-29622,Ba(MgSn)2,0.0
mp-29769,Sc5(NiTe)2,0.0
mp-29890,Th2AuF11,2.336799999999999
mp-29956,Hg3(SI)2,1.7365
mp-30194,Rb3CoO2,1.3335
mp-30249,Li4GeS4,2.4872
mp-30609,ErTlPd,0.0
mp-30821,LiAl2Rh,0.0
mp-30964,Dy2Zn17,0.0
mp-31055,Sc3InN,0.0
mp-31168,Li2AlAg,0.0
mp-31288,La5Pb3I,0.0
mp-31498,BaPt,0.0
mp-3297,Li10Zn4O9,2.329
mp-33444,Sr5(BiO4)3,0.0
mp-3441,Y(SiRh)2,0.0
mp-3494,CeGa3Pd2,0.0
mp-3630,HoInAu,0.0
mp-4196,NdFeSi2,0.0
mp-4408,Sm2Zr2O7,3.1936
mp-4564,Ba4Nb14O23,0.0
mp-4587,DyNiC2,0.0
mp-505538,Ti3Al2NiC,0.0
mp-505765,BaCoN,0.0
mp-510030,Pb3(ClO)2,2.795999999999999
mp-510083,Tb2Ti3Si4,0.0
mp-5353,ErCo3B2,0.0
mp-5370,ErNbO4,3.4997
mp-540809,Zr2Fe12P7,0.0
mp-541365,LiEuH3,0.0
mp-541557,Lu2Fe3Si5,0.0
mp-541811,Cs6K3GaSb4,0.6364999999999991
mp-541879,Rb2Ge2S5,2.339099999999999
mp-542154,Mo3Pd2N,0.0
mp-542245,Yb2PbAu2,0.0
mp-542496,Ca6Ag16N,0.0
mp-542503,La9(SbO)5,0.0
mp-542640,GePt,0.0
mp-542767,Sr2TmRuO6,0.0
mp-550566,EuBi2ClO4,0.0
mp-552802,ErU2S3O2,0.0
mp-554076,BaLiBS3,2.181
mp-554098,Ti6O,0.0
mp-554395,Na5Li3(TiS4)2,2.2479
mp-554554,K9Bi(PS4)4,2.0563
mp-554600,Cr(PO3)3,3.3268
mp-554796,BaSc3AgS6,1.4814999999999992
mp-555236,Tm2Te5O13,3.0248
mp-555604,Na3Dy(Si2O5)3,4.5070000000000014
mp-555781,Ba6Ti5S15O,0.6919999999999991
mp-556136,KMoIO6,3.0176
mp-556400,Cs2K2TeO5,2.0494
mp-556671,LuU4S5O4,0.0
mp-556697,CaTa2Bi2O9,2.8931
mp-556790,BaV2TeO8,2.688399999999999
mp-557413,Rb2Mo3SO13,2.8554
mp-557981,KCoPO4,2.8939
mp-558321,CsMo4(PO4)7,2.6279
mp-558346,Nd(IO3)3,3.3454
mp-558376,Na2Mn2O3,0.0
mp-558466,AsS(BrF2)3,2.4875
mp-559065,NaI3O8,3.186199999999999
mp-559568,K2Se2O5,3.533899999999999
mp-559571,ZrB2O5,3.7845
mp-559824,Au2Se3O10,0.980499999999999
mp-559975,SrMnO3,0.0
mp-560104,LiTaGeO5,3.7969
mp-560148,RbDy(WO4)2,3.8550999999999993
mp-561251,Rb2Y(NO3)5,3.3341
mp-566325,KEu(MoO4)2,0.0
mp-567485,CaGaAu3,0.0
mp-567856,MnAsRh,0.0
mp-567927,ZrAlPt,0.0
mp-568143,TmB4,0.0
mp-568244,TlSn2Br5,2.3783
mp-568580,Na10(Ga2Sn)3,0.0
mp-568621,Mg8BRh4,0.0
mp-569111,Sr14MnBi11,0.0
mp-569486,Yb2Ag7,0.0
mp-569505,TbRe2SiC,0.0
mp-570506,ZrI2,0.29760000000000003
mp-570923,YRe2,0.0
mp-571250,TaP2Se2Cl5,1.9
mp-5737,TbCuS2,1.510799999999999
mp-574273,Ce2Co5B2,0.0
mp-580215,CeGa6Pd,0.0
mp-581942,CeCu6,0.0
mp-582182,Cs5In3As4,0.9354000000000001
mp-5925,Nd2MgNi2,0.0
mp-601852,La3Si2Rh3,0.0
mp-604647,TiAs2,0.0
mp-606617,CuSb2(XeF8)2,0.0078000000000000005
mp-608543,Sc2CrC3,0.0
mp-616026,Sr3InP3,1.405
mp-619067,U3Cu2S7,0.0
mp-622602,NaMoAsO6,2.6358
mp-631378,Cs7NbIn3As5,1.1015
mp-637965,Gd(FeGe)2,0.0
mp-639138,EuSeClO3,0.0
mp-640712,Rb8In11,0.0
mp-645375,ZnBi6P2O15,2.891899999999999
mp-6583,Ba2Er(CuO2)4,0.0
mp-662599,Ag3AsSe3,0.8906000000000001
mp-6691,Ba2Dy(CuO2)4,0.0
mp-672191,CeInAg2,0.0
mp-676881,Ho4Zr3O12,4.141199999999999
mp-680301,K3AsO4,3.3314
mp-696500,Nb6HI11,0.14199999999999902
mp-7186,NdAl3Ni2,0.0
mp-725,RhO2,0.0
mp-733581,PrH(SeO3)2,3.5309
mp-733604,Ba2Mg3H10,3.0524
mp-7544,ZrSiRu,0.0
mp-755712,Rb4FeO4,0.6948000000000001
mp-759183,K2Mg(H2N)4,2.268
mp-761404,Co5CuO8,0.0
mp-7660,BaRhF6,0.0
mp-768342,SrNb2O4,1.1539
mp-770419,Sr2Zr7O16,3.8853
mp-770722,Mg3Mn5(BO4)4,0.8380000000000001
mp-771033,Tb2WO6,3.768499999999999
mp-775865,Li2Ti3MnO8,2.3698
mp-779000,Rb4SbO4,0.0
mp-779662,Zr5Sn3O,0.0
mp-7892,Mn2AlB2,0.0
mp-8392,Sc3Si3Ni,0.0
mp-8582,Eu(PRh)2,0.0
mp-861884,AcGaTe2,0.8567
mp-861901,LiGaCu2,0.0
mp-861969,LiTmTl2,0.0
mp-862666,DyGaRh2,0.0
mp-862830,PaTlAu2,0.0
mp-862925,PmInPt2,0.0
mp-862941,PmMgRh2,0.0
mp-862973,PmZn2Ag,0.0
mp-863684,Pm2GeAu,0.0
mp-864644,AcCdHg2,0.0
mp-864647,Hf2N,0.0
mp-864759,LiYb2Ir,0.0
mp-864883,MgSnPd2,0.0
mp-865025,HfTaRe2,0.0
mp-865155,MgAlRh2,0.0
mp-865190,Lu3Ni7B2,0.0
mp-865247,GaFeIr2,0.0
mp-865304,Tm2CoRu,0.0
mp-865446,Lu2AgHg,0.0
mp-865606,CsTaGeS5,1.0023
mp-865658,LiPrGe2,0.0
mp-865740,YbCdAu2,0.0
mp-865814,YbMgHg2,0.0
mp-865845,Yb2CuIr,0.0
mp-866000,CaLaCd2,0.0
mp-866012,Hf2ZnRe,0.0
mp-866069,MgScRh2,0.0
mp-866108,HfZn3,0.0
mp-867147,BaNaHg2,0.0
mp-867200,Pm,0.0
mp-867264,Re3Os,0.0
mp-867293,LiCo2Si,0.0
mp-867874,BeVRu2,0.0
mp-8914,SrGaSn,0.0
mp-9024,LuSiAu,0.0
mp-921,YRh2,0.0
mp-9216,Ca3Tl2O6,0.7309999999999991
mp-9344,TiTlCuTe3,0.008899999999999
mp-973956,Lu2CdAg,0.0
mp-975049,NdSmHg2,0.0
mp-975893,PrMgAu2,0.0
mp-976380,Nd(NiSb)2,0.0
mp-977543,ZrInRh2,0.0
mp-985586,Na3BrO,2.3358
mp-9928,CaRhF6,0.0
mp-998554,KAgCl3,0.0
mp-998964,TiGaFeCo,0.0
mp-999121,TbTlTe2,0.8322
mvc-4357,Ca2TaVO6,0.7927000000000001
mp-1001612,LuSi,0.0
mp-1005831,Tb2Co3Ge5,0.0
mp-1007694,SnPO4F,2.6443000000000003
mp-10094,Tm5(ReO6)2,0.0
mp-1018701,EuSnHg,0.0
mp-1018736,KCdAs,0.7128999999999991
mp-1019796,K4P2O7,3.7435
mp-1024990,LuB2Ir3,0.0
mp-1025362,Er2Re2Si2C,0.0
mp-10450,PrAlGe,0.0
mp-10503,MgB4Os3,0.0
mp-1068446,ScAu4,0.0
mp-1069375,NdAl3Cu,0.0
mp-1071505,Sr2FeO3,0.0
mp-1072259,LuSn2,0.0
mp-1076964,GdTe2,0.0
mp-1077167,TmCuSn,0.0
mp-1078409,Ba2LaBiO6,1.9995999999999992
mp-1078625,Tm2InAu2,0.0
mp-1078794,Ce(NiSn)2,0.0
mp-1078860,SrGeAu3,0.0
mp-1078872,Cs2Pu(Cl2O)2,0.07100000000000001
mp-1078990,CsTmS2,2.2814
mp-1079175,MgGaAu2,0.0
mp-1079217,LaGa2Ni,0.0
mp-1079239,Ho6MnTe2,0.0
mp-1079294,TmCuSb2,0.0
mp-1079937,Pr3Si2,0.0
mp-1079977,CeCdPd,0.0
mp-1080241,Li2Ge(S2O7)3,3.7659000000000002
mp-1080588,LaCuGe2,0.0
mp-1080622,KRhF6,0.0
mp-1087480,LuAlAu,0.0
mp-10890,LiAl3,0.0
mp-1095158,HfGaCo,0.0
mp-1095170,Sr2FeOsO6,0.0
mp-1095352,LiEuAs,0.0
mp-1095406,Ba3(LiSb)4,0.0
mp-1097041,IrO3,0.0
mp-1098010,Li2Eu5O8,0.0
mp-1101826,Ir3S8,0.0
mp-1101873,ErS2,0.5224000000000001
mp-1102023,HgPt2Se3,0.0
mp-1102817,Pr(Ge2Rh3)2,0.0
mp-1102980,NbFeP,0.0
mp-1103975,YbC6,0.0
mp-1103979,Nd5Ru2,0.0
mp-1104454,Ta4Ga(TeSe)4,0.0
mp-1104804,Ba2Cd2Sb3,0.0
mp-1105546,LaFe4(CuO4)3,0.0
mp-1105662,SmGe2Ir,0.0
mp-1105856,NpPt3,0.0
mp-1106165,Nb5Si3B,0.0
mp-1106214,LuGePd,0.0
mp-1106274,La(Co2B)6,0.0
mp-1106353,Er4Ge6Rh7,0.0
mp-11091,NdMgPt,0.0
mp-1113582,Rb2TlAgBr6,0.0
mp-1114704,Rb2LiTiF6,0.0
mp-1114708,Rb2NaRuF6,0.0
mp-1129,ScIr,0.0
mp-11294,DyCd2,0.0
mp-1132,CdO,0.0
mp-1145,TiB2,0.0
mp-11460,HfTc,0.0
mp-11534,Np,0.0
mp-11560,TiSiRu,0.0
mp-1169,ScCu,0.0
mp-1183060,AcHgRh2,0.0
mp-1183139,AcNiO3,0.0
mp-1184328,EuMgZn2,0.0
mp-1184580,HfZnRh2,0.0
mp-1184613,GdThRu2,0.0
mp-1185179,Li10Co4O9,1.7699
mp-1185233,Li2YIn,0.0
mp-1185354,LiGd2Os,0.0
mp-1185581,Mg149Cd,0.574199999999999
mp-1186155,NaCeHg2,0.0
mp-1186603,PmMg3,0.0
mp-1187213,Ta2ReOs,0.0
mp-1187292,Tb3Ge5,0.0
mp-1187524,TbGdIr2,0.0
mp-1187653,YbCd3,0.0
mp-1187897,Yb2MgTl,0.0
mp-1188009,ZrCdAg2,0.0
mp-1188258,Tb3Ge3Ru2,0.0
mp-1188416,Tb3In5,0.0
mp-1189145,Dy2Si4Mo3,0.0
mp-1189374,Ho6GaNi2,0.0
mp-1189387,PuB2Ru,0.0
mp-1189397,Pr(FeAs3)4,0.0
mp-1189509,Yb3Ni,0.0
mp-1189707,Nd2Zn5Pb,0.0
mp-1190006,Pr2AlGe6,0.0
mp-1190574,HoPS,0.5650000000000001
mp-1190610,Ho7(TeAu)2,0.0
mp-1190898,Bi7O5F11,3.9302
mp-1190975,Rb2Zn5Sb4,0.0
mp-11913,NaPr2IrO6,0.0
mp-1191402,GdMnGe2O7,1.295399999999999
mp-1191478,Tm2Fe17C3,0.0
mp-1192180,TmPS,0.6132000000000001
mp-1192452,RbNb2PSe10,0.9353
mp-1192839,Ce6Mg23Ge,0.0
mp-1192925,Ce3AlFeS7,0.0
mp-1193678,Ta3NO6,2.158
mp-1193985,Ta2(Co7B2)3,0.0
mp-1194680,TaTlV2O8,2.7795
mp-1195095,KCuSb3F18,0.2823
mp-1195227,NaY(Te2O5)2,3.100899999999999
mp-11959,CaSn2Rh,0.0
mp-1196972,KAgPSe3,1.3547
mp-1197504,Sm2Re3Si5,0.0
mp-1198165,Tm5(Ge5Ir2)2,0.0
mp-1198764,Gd2Re3Si5,0.0
mp-1198914,Dy6Al43Cr4,0.0
mp-1198919,Ba3Te3(BrO4)2,3.2962
mp-1199715,K2In2P3Se10,1.5675
mp-1200526,Eu3(GeAs2)2,0.013000000000000001
mp-12006,CeCdNi4,0.0
mp-1201534,Ce3Ge13Os4,0.0
mp-1201566,Tl3AsSe4,0.8419999999999991
mp-1201592,Tb(Cd10Ni)2,0.0
mp-1201657,Er2ReB6,0.0
mp-1202226,Na3TaS4,2.6484
mp-12024,RbVSe2,0.0517
mp-1202410,U(Zn10Os)2,0.0
mp-1202784,Y(Ni2B)6,0.0
mp-1203719,Er3C4,0.0
mp-1205326,Tb7PtI12,0.10210000000000001
mp-12055,LaCd2,0.0
mp-1205864,Y2CdCu2,0.0
mp-1205877,CsTlO,1.5098999999999991
mp-1205963,LuAgGe,0.0
mp-1206247,Sm2MgNi2,0.0
mp-1206951,GdMgTl,0.0
mp-1207064,Ba2TbTaO6,3.513
mp-1207715,Yb(Al5Re)2,0.0
mp-1208012,Tm4CdIr,0.0
mp-1208299,TbSBr,2.9450000000000003
mp-1208387,Tb7Co6Sn23,0.0
mp-1208402,UPbI6,0.0
mp-1208487,Tb3BCl3,0.0
mp-1208844,SmSBr,2.9703
mp-1208873,SmAl3Ni2,0.0
mp-1209224,RbYbP2O7,0.001199999999999
mp-1209388,Sc2InAu2,0.0
mp-1209449,Rb3LuCl6,1.3029
mp-1209790,Pu3S2,0.0
mp-1209834,Np2S5,0.0
mp-1210366,Y3Ga15Ru4,0.0
mp-1211094,LiCaVF6,2.6299
mp-1211146,Li5Ni9As7,0.0
mp-1211256,Li3Sm3(TeO6)2,3.1696
mp-1211262,LaBPt4,0.0
mp-1211385,LaZrF7,6.0295
mp-1212012,K10Tl7,0.0
mp-1212161,HfSiRu,0.0
mp-1212195,Ho5SbPt2,0.0
mp-1212270,Li3Lu(NO3)6,3.1118
mp-1212307,In7Ni3,0.0
mp-1212596,Eu2B2O5,0.034600000000000006
mp-1212924,Er4CdNi,0.0
mp-1213372,Dy5CoBi2,0.0
mp-1213392,CsGd(MoO4)2,3.0849
mp-1213395,CsLa(TaBr3)6,1.314099999999999
mp-1213737,Cs2La10Os2I17,0.0
mp-1213739,Cs2Ca2(SO4)3,5.6526
mp-1213877,Ce2(Ga3Ir)3,0.0057
mp-1214290,Cs3Pr(MoO4)3,3.7495000000000003
mp-1214519,Ba6Y2Al4O15,3.918199999999999
mp-1214618,Ba3CdIr2O9,0.0
mp-1214660,Ba4Nd(IrO4)3,0.0
mp-1214885,Ba3Er(BO3)3,3.859899999999999
mp-1215211,ZrNbB4,0.0
mp-1215765,YUS2,0.0
mp-1216210,Y(AlCu)6,0.0
mp-1217395,Th4C3,0.0
mp-1217463,Th2(InSn)3,0.0
mp-1217677,Tb2CuAg,0.0
mp-1217691,Tb3DyAl8,0.0
mp-1217775,Ta2Co3Si,0.0
mp-1217894,TaRe,0.0
mp-1217902,TaNbMo,0.0
mp-12192,La2Ti2O7,2.859499999999999
mp-1219278,ScSb3Pb4O13,1.4178000000000002
mp-1219319,Sm2CoNiO6,0.0
mp-1219742,PrNdSb,0.0
mp-1219860,Pr6Cd(SiS7)2,1.8690000000000002
mp-1220007,Pr2Si2PbS8,2.4148
mp-1221463,Na10NbGaAs6,0.9496
mp-1221797,Mn3B4W,0.0
mp-1222108,Mg4SiGe,0.0884
mp-1223487,La12Si4SnS28,1.4101
mp-1223695,InSnTe2,0.0
mp-1224563,Ho14Ag51,0.0
mp-1224896,FeSb6Pd,0.24819999999999903
mp-1225241,Ho20In40Rh19,0.0
mp-1225469,Dy5P12Ir19,0.0
mp-1225620,ErFeCo,0.0
mp-1226457,Cs4Mn3O6,1.265499999999999
mp-1226508,CeSi2OsRu,0.0
mp-1226734,CeEuB12,0.0
mp-1227565,BiSb3F20,2.1272
mp-12414,K(USe3)2,0.0
mp-1251539,RbAl(H2N)4,2.9385
mp-1278131,Rb2CoO3,0.9352
mp-12947,LaMgCu2,0.0
mp-13226,HoMg2Cu9,0.0
mp-13322,LiGeRh2,0.0
mp-13346,CsUAgS3,0.0
mp-13349,KUCuS3,0.0
mp-13916,LiCaSi2,0.0
mp-1546,DyMg3,0.0
mp-15790,LiHoS2,2.1353
mp-15822,LiSmGe,0.0
mp-1635,TbMg,0.0
mp-16415,LaPdO3,0.0
mp-16430,Pr(FeP3)4,0.0
mp-16871,K2ZrGe2O7,3.9164000000000003
mp-17015,K4GeO4,3.1647
mp-17063,BaLaCuTe3,0.8131
mp-17071,Rb2CrO4,3.1436
mp-1709,U2Ti,0.0
mp-17252,BaCu2GeSe4,0.3642
mp-17283,K3NbSe4,1.8249
mp-17869,NaCuF3,0.080899999999999
mp-18062,Na10YbSn12,0.7742
mp-18063,SrSn3,0.0
mp-18073,K7TaAs4,1.0401
mp-1823,Ti3Al,0.0
mp-18265,Y2Mo2O7,0.0
mp-18299,UF3,0.2169
mp-1837,TbCu,0.0
mp-18444,Sr3CuRhO6,0.0
mp-18973,CoSe2O5,2.6603
mp-1903,BaAl4,0.0
mp-19076,HoCrO4,0.29860000000000003
mp-19121,TbVO4,2.9899
mp-19143,BaCo2(AsO4)2,2.1224
mp-19265,DyNiO3,0.0
mp-19391,NaVO2,0.0
mp-19763,EuGe3Pt,0.0
mp-19852,Ba2UMnO6,1.055199999999999
mp-20165,Ce2InPd2,0.0
mp-20208,Sm(Sn3Ru2)2,0.0
mp-20321,UGeRh,0.0
mp-20615,EuGePd,0.0
mp-20661,Ti2PbC,0.0
mp-20837,Gd(MnGe)2,0.0
mp-20995,Eu4As3,0.0
mp-21456,SmMgIn,0.0
mp-219,MoP,0.0
mp-21926,Sr(FeO2)2,1.888199999999999
mp-22317,EuGa2,0.0
mp-22342,PbSeO4,3.1955
mp-2258,Cu3Au,0.0
mp-22633,Pb3O4,1.1538
mp-22713,Ce2Ni2Sn,0.0
mp-22821,SnP2PbO8,3.7068
mp-2302,AsRh2,0.0
mp-23270,Th3Bi4,0.20979999999999902
mp-23541,KSn2Br5,2.4079
mp-2369,SnPd,0.0
mp-2399,YHg,0.0
mp-2420,PW,0.0
mp-24286,ZrH2,0.0
mp-2489,UC,0.0
mp-2516,YZn,0.0
mp-2524,NdGa2,0.0
mp-2618,DyAg2,0.0
mp-2650,P4S7,2.7761
mp-27262,Ca9Zn4Bi9,0.0
mp-27398,TlBr2,1.807
mp-27440,ZrCl,0.0
mp-27479,Pr2W2O9,3.497
mp-27493,Sn3(PO4)2,3.4377
mp-28376,CuAuF5,0.0
mp-28384,GaBr2,3.1066
mp-28578,CsI3F16,4.171699999999999
mp-28721,Pt(SCl4)2,1.9063999999999992
mp-28845,OsO3F2,2.3215
mp-28857,Pb(IO3)2,2.7064
mp-28938,Nb3TeCl7,0.7027000000000001
mp-28968,Nb3Te3As,0.0
mp-29152,Zr2CoP,0.0
mp-2931,Li2TiO3,3.0688
mp-29440,CuMo3I7,1.5657
mp-29452,Sc4BCl6,0.0
mp-2949,Ca(NiGe)2,0.0
mp-29652,TaSe3,0.0
mp-30283,Tb4SiBr6,0.0
mp-30611,ErSnPt2,0.0
mp-30626,DyZn3,0.0
mp-30715,Lu2Zn17,0.0
mp-30741,PaIr3,0.0
mp-30765,LiPt7,0.0
mp-30791,Ho3(AlNi3)2,0.0
mp-30901,V2Te2O9,2.2329
mp-31027,Sc3(ReSi2)2,0.0
mp-31153,CaGePt,0.0
mp-31294,Sr2In3Rh2,0.0
mp-31412,PrSnAu,0.0
mp-31436,TbGe2Pd,0.0
mp-3278,Pr(SiPd)2,0.0
mp-32800,Ac2S3,2.2732
mp-342,SmTe,0.0
mp-3468,NaAsO2,3.7378
mp-355,Nd5Si4,0.0
mp-4107,Li(CoGe)6,0.0
mp-4271,EuTaO4,0.0
mp-4519,KPrO2,3.7022
mp-4720,Si2Ni6B,0.0
mp-4847,Y4Al23Ni6,0.0
mp-4993,TbSi2Ni,0.0
mp-505357,InSeI,1.4358
mp-505552,Cd2Ru2O7,0.0
mp-505780,Ge7Ir3,0.0
mp-540668,BS2,2.5545
mp-540791,Si4Rh3,0.0
mp-541049,Sr7Nb6O21,0.0
mp-541430,BaLaCuSe3,1.5903
mp-541558,Sc4Ge6Rh7,0.0
mp-541612,La4Os6O19,0.0
mp-541677,Cd2AsO4F,1.705099999999999
mp-541678,Cs3GaAs2,0.695199999999999
mp-541878,K2Ge2S5,2.3391
mp-542020,Sc3B2Rh5,0.0
mp-542099,Cs4PbO4,1.768899999999999
mp-542132,YbCuAs2,0.0
mp-542654,RbIn3S5,1.197499999999999
mp-5438,TmBRh3,0.0
mp-545728,PrBi2IO4,1.242899999999999
mp-549127,HoBi2ClO4,1.4651
mp-553912,NaZr2(AsO4)3,3.7556000000000003
mp-554264,Ba3Tb2(PS4)4,2.373699999999999
mp-554442,LiAuF4,2.1398
mp-554581,KSmP2S7,2.6290999999999993
mp-5549,MgSnAu,0.0
mp-554993,Pd3(PbS)2,0.0
mp-555617,Ce10Si8O3,0.0
mp-555893,Pr3CuSiS7,1.6624999999999992
mp-556539,BaSb2Xe5F22,2.6605
mp-556798,AgHg2PO4,1.1892
mp-557093,SrCr2O7,2.4835000000000003
mp-557250,HgINO3,1.9661
mp-557269,Ba2Hg3(PdO2)7,0.0
mp-557384,MgUB2O7,2.2225
mp-557942,SrFe3P3O13,0.5717000000000001
mp-558500,K2Ag2GeS4,1.6796
mp-558642,Sr3Bi(ClO)3,3.9997
mp-559427,BaSr4U3O14,2.0717
mp-559514,Nd4S3NCl3,3.0949
mp-560560,CdSiO3,2.5768
mp-561125,Ba5P3BrO12,4.9586000000000015
mp-5618,Mg2As2O7,3.058
mp-567590,LuOs2,0.0
mp-567994,Er5(NiTe)2,0.0
mp-568151,Ti5Ge3,0.0
mp-569132,K3InCl6,3.4614000000000003
mp-569635,Ba6Zn(InCl10)2,3.5151
mp-569683,InAu3,0.0
mp-570066,KZr6CCl15,1.1123
mp-570078,La4MgIr,0.0
mp-570443,Tl2CN2,1.9159000000000002
mp-571015,CuP4Se4I,1.6639
mp-571262,CaRh2,0.0
mp-571478,SnHg7(As2I3)2,0.946399999999999
mp-571542,CeAlCo,0.0
mp-579677,ZnB3Ir4,0.0
mp-5803,NbPO5,2.1648
mp-580802,Ce3CCl5,0.209399999999999
mp-5824,Hg2NO4,1.6237
mp-582423,Cs3Cu2Br5,2.1310000000000002
mp-583645,BaCaSn3,0.0
mp-585338,Li3Mn3(PO4)4,0.7327
mp-630019,GdAl2Ni,0.0
mp-636232,CeInAu2,0.0
mp-637204,CeCu5Sn,0.0
mp-642807,TbH2Br,1.8613
mp-643905,Sr(H2N)2,2.353999999999999
mp-645719,Ca4In3Au10,0.0
mp-646192,NaCrF6,1.442
mp-650715,Gd2Be2GeO7,3.2572
mp-654129,GaAg(PSe3)2,1.4987
mp-667294,Ca5(PPd)6,0.0
mp-667369,Ca2Zr5Ti2O16,3.0873
mp-672272,Sm2Pd2Pb,0.0
mp-675160,Ce11MnS16,0.0
mp-680813,SrIn6Cu7,0.0
mp-680932,OsPbO3,0.0
mp-684127,K3(Na13In24)2,0.0
mp-6940,U2IrC2,0.0
mp-7151,CsUCuSe3,0.0
mp-72,Ti,0.0
mp-720921,Na2Te2H4O7,3.687699999999999
mp-752445,TiV2O7,2.0316
mp-752730,Ba2GeO4,3.9678
mp-756040,Gd2HgO4,2.0053
mp-756459,Cs3TmO3,2.314899999999999
mp-757850,K4Sb2O5,2.3452
mp-759489,BaTi8O16,0.0
mp-7596,NbNO,1.6033
mp-769232,Dy2(SeO4)3,3.7761
mp-775855,NaMnPO4,3.2558
mp-784,KZn13,0.0
mp-7879,Sr(AgGe)2,0.0
mp-8048,NdNi4B,0.0
mp-8128,NaNdO2,3.3393
mp-8201,Rb3PdF5,2.2476
mp-8432,CaCuP,0.0
mp-861867,AcI3,2.5888
mp-861912,TaTiTc2,0.0
mp-862867,PaSe3,0.0
mp-862928,LiPmTl2,0.0
mp-862950,PmPd2Pb,0.0
mp-862990,Pm2AgSn,0.0
mp-864601,LiMg2Rh,0.0
mp-864621,NdGa3,0.0
mp-864793,NdAgAs2,0.0
mp-864806,NaAcHg2,0.0
mp-864926,HfPaTc2,0.0
mp-864988,Mn2AlCr,0.0
mp-865019,HfGaRh2,0.0
mp-865105,Dy2Co3Ge5,0.0
mp-865115,NaNdHg2,0.0
mp-865125,MgGaRh2,0.0
mp-865158,YbNdHg2,0.0
mp-865231,LiScTl2,0.0
mp-865299,TmZnRh2,0.0
mp-865609,LuGaRh2,0.0
mp-865734,Li5(Cu2P3)2,0.0
mp-865809,TiTc2Sb,0.0
mp-865849,NaYbAu2,0.0
mp-865887,TmCdAu2,0.0
mp-865909,Yb2HgGe,0.0020999999999990002
mp-865916,TiVRe2,0.0
mp-865957,AcSnAu2,0.0
mp-865977,LuCdAg2,0.0
mp-866031,Al2FeIr,0.0
mp-866046,Ti3In,0.0
mp-866654,Cs2MoSe4,1.2267000000000001
mp-867272,LiAlCu2,0.0
mp-867304,BeVFe2,0.0
mp-867871,SmMgZn2,0.0
mp-8760,Dy5P12Ru19,0.0
mp-8810,SrZn2(PO4)2,3.9634
mp-9459,Y4C5,0.0
mp-9582,Yb(ZnP)2,0.8599000000000001
mp-972406,YbSi2Ni,0.0
mp-972424,TbYbPt2,0.0
mp-973629,LuAlPd,0.0
mp-973756,Lu2Mo2C3,0.0
mp-975729,Pr(BRu)2,0.0
mp-9767,BaAs2Pd,0.0
mp-977407,Hf2ReRh,0.0
mp-977441,MgPaRh2,0.0
mp-978854,Sr(GaH)2,0.0
mp-980066,Sm2(CuAs)3,0.0
mp-984551,AcTlHg2,0.0
mp-985477,AlTlS2,2.1197
mp-9958,Ti2GeC,0.0
mp-9999,Ni(BMo)2,0.0
mvc-11733,La2MgVO6,1.739999999999999
mvc-1665,Ba2MgCu3F14,0.0
mp-1005690,Sm2Co12P7,0.0
mp-10108,NpP,0.0
mp-1014229,Ti2Zn,0.0
mp-1014252,Hf3ZnN,0.0
mp-1018783,LiBeB,0.0
mp-1020058,Mg(NO3)2,3.4668
mp-1021330,Rb2Ge(S2O7)3,3.8074000000000003
mp-1024948,LuZn2,0.0
mp-1025034,ThNi2B2C,0.0
mp-1025316,Ho2Fe2Si2C,0.0
mp-10255,Nb3B4,0.0
mp-1070869,ZrCu4Ag,0.0
mp-10714,TmRh3C,0.0
mp-1072097,GdInPt4,0.0
mp-1077397,ScCdNi4,0.0
mp-1077915,HgAsPd5,0.0
mp-1078291,LaCo2AsN,0.0
mp-1079361,YAlCu,0.0
mp-1079739,GdSnPt,0.0
mp-1080104,Pr(BIr)2,0.0
mp-1092,HoHg,0.0
mp-1092301,La(GaPd)2,0.0
mp-1095253,ScGePt,0.0
mp-1095487,LuTc2,0.0
mp-10956,LaAsRh,0.0
mp-1101967,NbCoAs,0.0
mp-1102423,CeAlAu,0.0
mp-1102578,Nd3(AgSn)4,0.0
mp-1102652,EuMgSi,0.0
mp-1102692,YbIn4Ni,0.0
mp-1102777,SmNiP,0.0
mp-1102840,YAlAu,0.0
mp-1103180,TaPRu,0.0
mp-1103837,HoZn12,0.0
mp-1104257,Ba6Os2N6O,0.0
mp-1104792,MnBe12,0.0
mp-1105156,Eu2Si5Pt3,0.0
mp-11054,RbSn,0.7438
mp-1105803,Dy4Ge6Ir7,0.0
mp-1105809,Ce4Se3N2,0.0071
mp-1112176,CsTlCl3,1.2718999999999991
mp-1112402,CsRb2RhF6,2.26
mp-1112989,Cs2NaEuCl6,0.0
mp-11160,SmSbIr,0.0
mp-11172,LiIrF6,0.0
mp-11283,ZrBe5,0.0
mp-11630,Dy2Al6Si4Pt,0.0
mp-1172871,Mn7GeO12,0.48260000000000003
mp-1173297,SmPaO4,2.7908
mp-11775,RbUO3,0.507699999999999
mp-1179485,Sm4In21Pd10,0.0
mp-1179919,Pr(As3Ru)4,0.0
mp-1180208,NF2,1.8965
mp-1181094,Hf2SiH,0.0
mp-1183054,Ac2GaSi,0.0
mp-1183220,AcRh2Pb,0.0
mp-1183252,BIr,0.0
mp-1183472,CaAcGa2,0.0
mp-1183555,CaNdAg2,0.0
mp-1184139,Dy2TlIn,0.0
mp-1184390,Gd2TlZn,0.0
mp-1185534,HoMg149,0.27990000000000004
mp-1185640,Mg149Ta,0.1461
mp-1186201,NaYbPb2,0.0
mp-1186441,Pm2AlZn,0.0