material_id,pretty_formula,band_gap
mp-2923,Ca2Os2O7,0.0
mp-29249,GeAsSe,1.4956
mp-29658,ZrNiH3,0.0
mp-29698,Nb3ClO7,2.0193
mp-29989,Sm3(SiIr)2,0.0
mp-30045,CoGe2,0.0
mp-30207,La3GaBr3,0.0
mp-30340,ErInAg2,0.0
mp-3035,Ce(FeSi)2,0.0
mp-30495,SmCd2,0.0
mp-30645,HoGa4Ni,0.0
mp-30692,GdTlPd,0.0
mp-31016,Ca4Nb2O9,3.264099999999999
mp-31019,Al45Cr7,0.0
mp-31132,Hg4OF6,0.2036
mp-31347,YInRh,0.0
mp-31413,TbSnAu,0.0
mp-31421,PrAgSn,0.0
mp-3177,Nd(CuGe)2,0.0
mp-32533,Na2W4O13,1.9482
mp-32873,Hf23Se25,0.0
mp-3349,Sr3Ti2O7,1.875799999999999
mp-3704,Cs2Mn3Se4,0.0
mp-37859,Sr(PrSe2)2,1.7496
mp-4298,Tm(MnSn)6,0.0
mp-4638,TlCrTe2,0.0
mp-4663,Yb2CdPd2,0.0
mp-4664,MnGeRh2,0.0
mp-4903,Tm(CuSi)2,0.0
mp-504941,Sc2V3Si4,0.0
mp-505341,Ni2W3N,0.0
mp-505688,VPPbO6,2.3759
mp-5068,DyZrSb,0.0
mp-510374,GdAs,0.0
mp-510445,Ni10Sn5P3,0.0
mp-510581,PrNiSnH2,0.0
mp-5295,LaNbO4,3.939999999999999
mp-531071,NaTa4O8,0.0
mp-532358,CaNb4O8,0.0
mp-540735,Cs2UBr6,0.0
mp-540822,Cs3Zr2I9,0.40540000000000004
mp-540883,As2P2S7,2.6133
mp-541310,CaGaGe,0.0
mp-541493,UV2O8,2.1142
mp-541867,CsRe3(O3F5)2,3.0448
mp-541954,Fe2P2H4O9,3.6173
mp-542117,Cd3Se3O10,3.0782
mp-542810,AsS,2.1214
mp-554859,KGeAuS3,2.2108
mp-554888,KUI3O11,2.2593
mp-555287,Rb3FeO3,1.9256000000000002
mp-5553,Nd(CoB)2,0.0
mp-5556,U(SiRh)2,0.0
mp-555851,Na2Cd3(P2O7)2,3.0538
mp-555965,Li2ZnSn3O8,1.942699999999999
mp-556078,MgAs2(XeF8)2,2.9713000000000003
mp-556102,Na2U(WO5)2,2.0352
mp-556255,K3V3(AsO7)2,2.8638
mp-556401,Ti2Fe(PO5)2,2.205999999999999
mp-556407,Ba3Bi2TeO9,2.128999999999999
mp-557626,Gd2TiO5,3.1551
mp-5578,LuB2Ru3,0.0
mp-557998,Dy3CuSiS7,1.807399999999999
mp-558159,BaTi2O5,2.8063000000000002
mp-558371,La5Ti5O17,0.0
mp-558666,KVOF4,3.6713
mp-559064,SnP2(Cl5O)2,2.8617
mp-559228,Rb2HfS4,2.177
mp-559805,HoTeClO3,3.8772
mp-559818,SrMn(SeO3)2,3.3822
mp-559874,FeTe2ClO5,2.1053
mp-560,TmAu2,0.0
mp-560193,SnSe2(Cl4O)2,2.775
mp-560328,Ag15P4S16Cl3,1.2258
mp-560365,Rb2Zr(IO3)6,3.3602
mp-560443,AgHg2NO5,0.8351000000000001
mp-560504,Rb2Sb2OF10,3.7928
mp-560904,CdHg2SO6,1.5434
mp-561186,Sm3BWO9,3.8390999999999993
mp-561236,Pb13(Cl3O5)2,1.8956
mp-561428,NiF3,0.0
mp-5620,TmB2Ru3,0.0
mp-562513,CsUVO6,2.0619
mp-567203,La(SiOs)2,0.0
mp-567334,Ag(BCl)6,2.6955
mp-567681,CsPbBr3,2.8917
mp-567749,Y(SiOs)2,0.0
mp-567857,Cd8Ag5,0.0
mp-568001,AlHg2SbCl4,0.8380000000000001
mp-568611,KCuPSe3,1.0053
mp-568832,Y(PRu)2,0.0
mp-568937,Cs3Y2Br9,4.044399999999999
mp-569344,Zr(CoSi)2,0.0
mp-5694,NaHoS2,2.3432999999999993
mp-569630,NdOs2,0.0
mp-569862,Rb4P2Se9,1.4341
mp-569873,La4C2Br5,0.0
mp-570414,Tm2Fe14C,0.0
mp-570738,GaI2,2.3838
mp-570836,K5Ag2(AsSe3)3,0.9520000000000001
mp-571021,K5InPb8,0.0
mp-571371,CsK2BiCl6,3.9175
mp-571410,CsZr6BI14,0.7685999999999991
mp-571474,Sm4Sn3,0.0
mp-5729,YAgSn,0.0
mp-573710,CsTbZnSe3,2.099399999999999
mp-5788,NaUO3,0.429699999999999
mp-581143,RuOF4,0.531799999999999
mp-582175,La4Si4I3,0.0
mp-582176,CsZr6CI14,0.007500000000000001
mp-582723,Cs3AlAs2,0.7391000000000001
mp-582883,Pr21Fe8Bi7C12,0.0
mp-583221,Ba7B4Se13,2.119099999999999
mp-5838,Ba2SiS4,3.005
mp-607230,Ca3Ga3Rh2,0.0
mp-6091,BaAl2(SiO4)2,4.8241
mp-613455,Yb(ReO4)3,0.0
mp-616141,Cs5GeAs3,0.5621
mp-617298,CsUTiTe5,0.0
mp-619575,ClF3,2.54
mp-621928,LiEu(SO4)2,0.0
mp-623108,Eu4Ir,0.0
mp-627380,Mn(ReO4)2,3.1547
mp-628631,GdBi2IO4,1.3482
mp-635426,GdAu,0.0
mp-636498,In3Ir,0.0
mp-642660,Mg2CoH5,0.21219999999999903
mp-645663,Te2Mo3Se7Br10,1.474
mp-650280,Cs2As8S13,1.5193999999999992
mp-651741,Cs2Re2Se5,0.7025
mp-654447,Ni(XeF8)2,1.9570999999999992
mp-6609,Ba2HoRuO6,0.09189999999999901
mp-662534,AgIrF7,0.0
mp-669455,Ga4Hg11(AsBr4)4,0.8558
mp-673706,Li7(Mo3Se4)4,0.0
mp-675013,Na(Ce2Se3)4,0.0
mp-680260,Ti45Se16,0.0
mp-680314,Rb14Si6Ge4O17,0.0
mp-680380,Ca2Ta2O7,3.4128
mp-6805,K3Ga2(PO4)3,3.7698
mp-680553,Sm3Sn13Rh4,0.0
mp-680697,Ce6Si4S17,0.5558999999999991
mp-6950,BaSb3,0.0
mp-7032,HfMoP,0.0
mp-707138,Ag2PHO4,1.3373
mp-707981,Y4H9NO13,3.3617
mp-7124,TbSiPt,0.0
mp-7130,ScRu3C,0.0
mp-7303,ErCd3,0.0
mp-744764,Mn7P6(HO6)4,3.2105
mp-7480,RbLuO2,3.6905
mp-752672,NaDyO2,4.0417
mp-753489,Zn(CoO2)2,1.867499999999999
mp-754515,BaMgGe,0.0
mp-754870,Li2RhO3,0.0
mp-757021,KGdO2,3.1151
mp-759223,Sn(SO4)2,2.3798
mp-759924,Bi14SO24,2.6584000000000003
mp-761128,BaNb5O8,0.0
mp-762019,LiV(CO3)2,1.9881000000000002
mp-771031,Lu2TiO5,3.273999999999999
mp-772787,Gd2P4O13,3.296999999999999
mp-772821,Rb3LuO3,2.1896
mp-774082,Li(CoO2)2,0.404199999999999
mp-8152,Li2CeAs2,0.6905
mp-8221,ZrAsRu,0.0
mp-8260,NaGdS2,2.0016
mp-8310,Li(NiP)2,0.0
mp-861875,LiHf2Re,0.0
mp-861909,CdGaRh2,0.0
mp-862485,GaCuRh2,0.0
mp-862554,LiEr2Ir,0.0
mp-862882,CaPmAu2,0.0
mp-862938,PmMgHg2,0.0
mp-862985,PmAu3,0.0
mp-863727,LiTiRh2,0.0
mp-864968,MnInRh2,0.0
mp-865029,LiPaRu2,0.0
mp-865123,MgGaPd2,0.0
mp-865129,Lu2MgGe2,0.0
mp-865235,Ti6Al16Ni7,0.0
mp-865410,LuThRu2,0.0
mp-865426,YbNdAg2,0.0
mp-865651,Y2TlCd,0.0
mp-865743,Ga2IrRh,0.0
mp-865783,YbHoRh2,0.0
mp-865865,Yb(ErS2)2,1.466399999999999
mp-865866,LiZrPt2,0.0
mp-865927,AcTiO3,0.0
mp-866001,AlVRu2,0.0
mp-866019,LiNdTl2,0.0
mp-866063,NdDyMg2,0.0
mp-866140,TiGaPd2,0.0
mp-866165,YMgRh2,0.0
mp-866203,AcYbHg2,0.0
mp-866782,Gd2(Ga3Co)3,0.0
mp-867115,LiCd2Rh,0.0
mp-867231,TbI3,2.0967000000000002
mp-867255,LiZn2Au,0.0
mp-867290,TbTe,0.0
mp-867333,Ba2CdPb,0.0
mp-867343,Li3Cd,0.0
mp-867357,Tc3Ni,0.0
mp-867628,Y6Cu11O24,0.0
mp-867776,LiDy2Os,0.0
mp-8689,V4GeSe8,0.0
mp-8842,CaSiPd,0.0
mp-8952,HoAsPd,0.057699999999999
mp-9210,La(PdO2)2,0.0
mp-972204,V2MoRu,0.0
mp-972224,TaGeRh,0.0
mp-977345,Ho2Co3Si5,0.0
mp-977357,Ta2ReRu,0.0
mp-977368,K2Dy4Cu4Se9,0.817099999999999
mp-977405,LiLu2Rh,0.0
mp-979948,SmNiB4,0.0
mp-984335,PmErIn2,0.0
mp-985806,Al2Cu,0.0
mp-9969,ScSi,0.0
mp-997004,CaAgO2,0.0
mp-999336,NdPd,0.0
mvc-10313,BaMgCuF7,0.3054
mvc-12243,Ba2Fe2CuF14,0.0
mvc-16742,Li(MnS2)2,0.0
mp-1005,FeP,0.0
mp-1006328,LiCeSn,0.0
mp-1018077,ErGa,0.0
mp-1018104,Zr2Cd,0.0
mp-1018129,Pt2W,0.0
mp-1018689,ErZnIn,0.0
mp-1018731,HoSI,2.7205999999999992
mp-1019316,Tc2N,0.0
mp-1019718,CsBe4(BO3)3,5.419399999999999
mp-1024987,HoCu4Ag,0.0
mp-1024993,DyB2Ir3,0.0
mp-1025137,NpNi5,0.0
mp-1025180,Mn(CrSe2)2,0.0
mp-1025208,Cs2PuO4,0.0
mp-1029659,Ca3FeN3,0.0
mp-10658,Dy,0.0
mp-1069057,Sr(CoSi)2,0.0
mp-1071422,CeAg2,0.0
mp-1071468,TbMgSn,0.0
mp-1079253,Tb6CoTe2,0.0
mp-1079307,Dy3(CoGe2)2,0.0
mp-1079329,HoZnPd,0.0
mp-1079701,UCoC2,0.0
mp-1079709,YbSnIr,0.0
mp-1079826,ErSnPt,0.0
mp-1080176,Gd(BC)2,0.0
mp-1080756,ErAu3,0.0
mp-1095110,Ba2SmMoO6,0.931099999999999
mp-11,As,0.0
mp-1100780,ZrZnPd2,0.0
mp-1102508,DyOs2,0.0
mp-1102976,ZrPOs,0.0
mp-1103809,NpB12,0.0
mp-1103835,Lu(MnSn)6,0.0
mp-1104032,Lu3Ga8Ir3,0.0
mp-1104121,Li2La2Si3,0.0
mp-1105294,Ca5(GePd)6,0.0
mp-1105392,Ce3Bi4Pt3,0.212399999999999
mp-1106024,Eu5As3,0.0
mp-1106407,HfCo3B2,0.0
mp-1108,TaB2,0.0
mp-1112144,Cs2NaPrI6,3.1134
mp-1113515,Cs2LiEuCl6,0.0
mp-1113559,Rb2CuSbCl6,0.9345999999999991
mp-11142,SrCu9Si4,0.0
mp-11194,NdMgNi4,0.0
mp-1120730,K3(CuS)4,0.0
mp-11262,YbAu4,0.0
mp-1150,URh3,0.0
mp-11551,Tb2Pt,0.0
mp-11573,TiTc,0.0
mp-11701,YbCuSb,0.0
mp-11752,Lu7(NiTe)2,0.0
mp-1182712,CaH8(BrO6)2,3.044699999999999
mp-1183073,Ac2TlIn,0.0
mp-1184199,Eu2AgPb,0.0
mp-1184245,ErTmTl2,0.0
mp-1184604,Hf2OsRu,0.0
mp-1184732,GdYIr2,0.0
mp-1184818,HoMgAg2,0.0
mp-1185363,LiMgHg2,0.0
mp-1185917,MgPaAu2,0.0
mp-1186611,PmNdGa2,0.0
mp-1187240,Sr2InHg,0.0
mp-1187969,Zn3Ag,0.0
mp-1188090,Eu5Sn3H,0.0
mp-1189097,Pr2Al3Ge4,0.0
mp-1189294,La3In4Ge,0.0
mp-1190259,Ba3UFeSe6,0.0
mp-1190352,HgP2PdO7,1.2667
mp-1190858,BaFe2(P2O7)2,1.823599999999999
mp-1191275,Ho3(SiNi3)2,0.0
mp-1191565,SmPS,0.446499999999999
mp-1191589,Ca2Ni12As7,0.0
mp-1192510,Rb(GeAs)3,0.8013999999999991
mp-1192512,Ta2(Ni7B2)3,0.0
mp-1192593,Sm6Mg23C,0.0
mp-1192708,U8CoS17,0.0
mp-1192762,Ce3IrI3,0.0
mp-1192783,V4P3,0.0
mp-1192795,Hf6Co23,0.0
mp-1193410,Ba(DyS2)2,1.760399999999999
mp-1193543,Nb4NiSe8,0.0
mp-1194839,P3RhW2O15,1.552299999999999
mp-1194853,CsInHgS3,1.3889
mp-1194889,MgAu2(SO4)4,1.7617
mp-1195,Ba3P14,1.916399999999999
mp-1195675,La2CuBiS5,1.1082
mp-1195872,Sm3Ga2,0.0
mp-1196120,Sr4SiAs4,1.1521
mp-1196651,Rb8Mn5O10,0.8041
mp-1196929,CdBiBF10,2.0414
mp-1197456,CsUTe6,0.042300000000000004
mp-1197663,ScCrGe2,0.0
mp-11991,Nd2CdNi2,0.0
mp-1199248,CsMo2P3O13,2.4476
mp-1199278,NdMoClO4,2.617
mp-1199697,Ce3(Al3Pt2)2,0.0
mp-1200192,Tb2B6Ru,0.0
mp-1200540,Ho4RuBr5,0.40689999999999904
mp-1200951,Cs3Bi2(PS4)3,1.974899999999999
mp-1201245,PrCd11,0.0
mp-1201296,Nd5Rh4,0.0
mp-1201509,Rb3B(SeO4)3,3.0595
mp-1201514,K2RuO5,0.9515
mp-12018,NdAl4Ge2Au,0.0
mp-1201807,Rb2Ta2P7O24,0.0
mp-1202127,Tb2Nb3Ge4,0.0
mp-1202647,La2SbS5Br,1.8765
mp-1203123,BaLa2WO7,3.3394999999999992
mp-1204278,Rb2U3P6O25,2.117099999999999
mp-1204799,Tc2Te5,0.525999999999999
mp-1205342,KAg3Te2,0.2335
mp-1205600,Ba2NdTaO6,3.5086999999999993
mp-1205704,HoPRu2C,0.0
mp-1205726,Y2Co2I,0.0
mp-1205768,ZrPt8,0.0
mp-1205778,HoCdAu,0.0
mp-1205890,Pr2InAu2,0.0
mp-1205934,Ba2YbMoO6,2.2667
mp-1206024,HoInNi4,0.0
mp-1206315,SmCdAu,0.0
mp-1206773,TmRu3C,0.0
mp-1206857,SmSnIr,0.0
mp-1206959,Yb(PPd)2,0.0
mp-1206983,Ho3PbC,0.0
mp-1207117,Fe2CoSi,0.0
mp-1207608,YZnRh,0.0
mp-1207716,TmNiGe2,0.0
mp-1207728,Y5(GeSb)2,0.0
mp-1207735,Y8Te3,0.0
mp-1207828,WCl2,2.8308
mp-1207959,Tm3Fe2Si3,0.0
mp-1208154,Tl2VF6,0.0
mp-1208296,TbZnGe,0.0
mp-1208448,Tb4Ga12Ag,0.0
mp-1208475,Ta2Ni3Te5,0.023299999999999002
mp-1209293,PrSBr,2.8583
mp-1209486,Rb4UC3O11,2.1543
mp-1209807,Pr2(MoO4)3,3.6274
mp-1209930,Nb5SiB2,0.0
mp-1210010,NdIn2Cl5,2.8074
mp-1210255,Na3Nd9B8O27,3.968
mp-1210363,Nd6Al43V4,0.0
mp-1210574,Lu5(ReO6)2,0.0
mp-1210643,Na3Eu9B8O27,0.0
mp-1210653,Lu4CdIr,0.0
mp-12108,VPt2,0.0
mp-1210954,LiSm2RuO6,0.0
mp-1211005,LiTb(WO4)2,3.772599999999999
mp-1211329,La2Sn3,0.0
mp-1211495,La3PtI3,0.0
mp-1211591,La3(GaRh)2,0.0
mp-1211821,K4MoO5,3.1470000000000002
mp-1212002,KEr(SeO4)2,3.4656000000000002
mp-1212836,DySbIr,0.0
mp-1212897,Er2Si3Pd,0.0
mp-1213056,Dy(Al5Fe)2,0.0
mp-1213150,CsNd(WO4)2,3.4764
mp-1213198,CuAg2P2O7,0.429699999999999
mp-1213298,DyIn2Pd,0.0
mp-1213360,CsSrTa6Cl18,0.1436
mp-1213387,Dy3C4,0.0
mp-1213867,Ce2(CN2)3,0.0
mp-1214132,Ca4SiP4,1.2001
mp-1215219,ZrTaC2,0.0
mp-1215378,Zr4Ni3As8,0.0
mp-1215478,Zr2VCo3,0.0
mp-1215771,YbZr3F15,0.0158
mp-1216942,Tm5P12Ir19,0.0
mp-1217093,Ti2NbAl,0.0
mp-1217391,Ti13Al9Co8,0.0
mp-1217578,U12Ge3Te20,0.0
mp-1219122,RbV3Cd4O12,2.308999999999999
mp-1219231,Sm2Fe4Co13,0.0
mp-1219457,SbAs,0.0
mp-1219735,PrYMg6,0.0
mp-1220066,P2Pb4SO12,3.8547000000000002
mp-1220828,Nb4Pb3(O6F)2,2.7892
mp-1221500,MnZnSe2,0.3468
mp-1222161,Mn4FeGe3,0.0
mp-1222600,Li2ZnSn,0.0
mp-1222765,LaZn3Ni2,0.0
mp-1222835,LaGe2IrRu,0.0
mp-1222858,LaNi4Rh,0.0
mp-12231,SnTe3O8,2.925099999999999
mp-1223229,La2Ge4IrRh3,0.0
mp-1223262,La6Sb4(SO4)3,1.5573000000000001
mp-1223272,La2Si2PbSe8,2.0525
mp-1223493,KBa2Nb3O9,0.0
mp-1223832,K(SiPt)4,0.0
mp-1224388,Hf3N2,0.0
mp-1224435,Hf2V3Ru,0.0
mp-1224743,Fe2Ni(PO4)2,3.4826
mp-1225049,K18Na46Tl31,0.0
mp-1225205,EuGaAu,0.0
mp-1226739,Cs3Tb7Te12,0.842499999999999
mp-1227163,CaZrTi2O7,2.878
mp-1227322,Bi2PdPt,0.0
mp-1227488,Ca(BiAu3)2,0.0
mp-1228122,Ba6Bi2(TeO6)3,2.0681
mp-1228302,Ba4Cu2Si21,0.0
mp-1228817,AlReGe,0.139499999999999
mp-1240,HoS,0.0
mp-12561,TaAs2,0.0
mp-1263,URu3,0.0
mp-12678,TaMn2,0.0
mp-12775,ThRu,0.0
mp-12879,Tb2Si5Rh3,0.0
mp-12957,O2,1.369
mp-1295764,Ba3Cr2O8,1.1478
mp-13202,YCuSn,0.0
mp-13208,Mg2Pt,0.0
mp-13221,NdMg2Cu9,0.0
mp-13222,SmMg2Cu9,0.0
mp-13431,Dy2AlCo2,0.0
mp-13475,CeSi2Ir3,0.0
mp-13964,HfGeTe,0.0
mp-13972,Sm2SeO2,2.2962
mp-13993,Ti3NiS6,0.0
mp-14325,La(Ni2B)6,0.0
mp-14428,KNa4GaO4,2.3943
mp-14885,Rb2Cu2Si8O19,0.546
mp-14901,NaZnAsO4,2.7708
mp-15009,La3(GeRh)4,0.0
mp-15053,Y(PdO2)2,0.0
mp-15308,TmSi3Rh5,0.0
mp-15626,Rb2NaTiF6,0.0
mp-15753,Ba3(LiAs)4,0.0
mp-15786,KHoS2,2.3857
mp-15889,Ba2LaIrO6,0.0
mp-16033,Sm2TeO2,1.4499
mp-16340,GdPPt,0.0
mp-16515,Al4Ni3,0.0
mp-1670,MnPt,0.0
mp-16818,Rb2Cd3Se4,1.4123
mp-16884,RbEr2Cu3Se5,1.2684
mp-1703,YbZn,0.0
mp-17196,TiAs2O7,2.7103
mp-17637,USO6,2.004299999999999
mp-1773,ReB2,0.0
mp-17854,LiInGeO4,2.277799999999999
mp-17913,Tb2SiSeO4,2.9088000000000003
mp-17988,U2Mn12P7,0.0
mp-18427,Nb2Al,0.0
mp-1852,UF5,0.7470000000000001
mp-19087,Na3Co2SbO6,0.8555
mp-1921,ThTe,0.0
mp-19231,Mn(SbO2)2,0.0
mp-19269,NdCrO3,2.54
mp-19281,LaCrO3,2.3706
mp-19522,P2W2O11,3.1087
mp-1959,PuO2,0.0
mp-19753,Gd(SiPd)2,0.0
mp-19798,EuGePt,0.0
mp-19910,Ce2MgNi2,0.0
mp-19936,Sc(MnGe)6,0.0
mp-19950,Dy2Ti3Si4,0.0
mp-20051,CeBPt4,0.0
mp-20157,BaGdCuSe3,0.8829999999999991
mp-20205,Yb2Cu2O5,0.9982000000000001
mp-20211,Mn3Si,0.0
mp-20517,BPd3,0.0
mp-20532,PrSb2Pd,0.0
mp-20539,ScIn3,0.0
mp-20548,U(Al5Fe)2,0.0
mp-20752,Ce(Sn3Ru2)2,0.0
mp-20774,NdCuSn,0.0
mp-20921,Ba3MnNb2O9,1.749699999999999
mp-20996,DyIn5Rh,0.0
mp-21124,SrIn4Pt,0.0
mp-21158,CeAlPd,0.0
mp-2120,HoAg2,0.0
mp-21242,LiYbPb,0.0
mp-21525,RbPb,0.405
mp-21532,La2Ge2O7,3.7963
mp-21594,Ca9Zn4Sb9,0.0
mp-21621,Y6Te2Rh,0.0
mp-21639,KTiF4,0.0
mp-21673,Ge2Pt3,0.0
mp-21677,Ca3(InNi2)4,0.0
mp-21705,K2In3AgSe6,1.0584
mp-21741,K2In2As3,0.780799999999999
mp-21779,CaCuGe,0.0
mp-2178,YbGa2,0.0
mp-22239,GeRh,0.0
mp-22302,ZrVP,0.0
mp-22495,SmNiO3,0.0
mp-2252,ScB2,0.0
mp-22554,MnSO4,2.8345000000000002
mp-23012,Bi2Pd3S2,0.0
mp-2316,TmZn,0.0
mp-23238,Ta3I7,0.8864000000000001
mp-262,Na3B20,0.0
mp-27194,SnI2,1.8334000000000001
mp-2744,LiPd,0.0
mp-27535,Ca(IO3)2,3.5872
mp-27656,Zn2(PS3)3,1.8233000000000001
mp-27928,Ge2S3I2,2.2528
mp-27961,Zr3(Cu2Si3)2,0.0
mp-28104,Fe2MoP12,0.020700000000001002
mp-28339,CaPPt,0.0
mp-284,AlCo,0.0
mp-28574,KPbO2,1.4532
mp-2865,K2CuF4,0.46280000000000004
mp-28693,Al3Te3I,1.964299999999999
mp-28763,CaAsPd,0.1829
mp-28900,Cd2As3Br,0.8804000000000001
mp-2938,Tm(FeSi)2,0.0
mp-29386,K6Sn2Se7,1.6824999999999992
mp-29787,Ba5Pt2O9,1.939299999999999
mp-30421,Sr3Au2,0.0
mp-30487,EuCd2,0.0
mp-30748,Zr3Ir,0.0
mp-30761,Li7Pb2,0.0
mp-30780,SrMgSn,0.0
mp-30851,Ti3Pt5,0.0
mp-30963,Er2Zn17,0.0
mp-31287,Tl3PdBr5,1.345799999999999
mp-31449,HoAgPb,0.0
mp-3199,CuSe2O5,0.0
mp-3474,LaCuO3,0.0
mp-34842,Na3UO4,0.13720000000000002
mp-363,NbGe2,0.0
mp-376,PrSn3,0.0
mp-3938,ZrSiS,0.0
mp-492,TiN,0.0
mp-505284,Pb3(BrO)2,2.7441
mp-510569,CsCeCuS3,0.8197999999999991
mp-5154,HoNiC2,0.0
mp-530144,Ba6Cu34S27,0.0
mp-5346,Lu(CuSi)2,0.0
mp-5360,Ba3Nb16O23,0.0
mp-540803,Sr3(LiSb)4,0.0
mp-541047,ZrAlPd2,0.0
mp-541275,Cs2U(Cl2O)2,2.3301
mp-541610,GeBr2,2.5976
mp-542,SrHg,0.0
mp-542675,Na(RhO2)2,0.0
mp-546672,LaBi2IO4,1.245
mp-555179,GdMoO4F,1.365
mp-555587,K2SmP2S7,2.3073
mp-555939,Li2Te2O5,3.105799999999999
mp-555973,Na5Er(MoO4)4,3.8857
mp-556141,Ni3B7ClO13,3.302499999999999
mp-556665,TlBiP2S7,2.183
mp-556797,K2Si3SnO9,3.8608000000000002
mp-557110,Tb3BWO9,3.8173
mp-557186,CsTa2P5O18,2.8825000000000003
mp-557285,Ho11Te16ClO48,2.801
mp-557910,Cd2PO4F,2.3713
mp-558501,KBi6IO9,2.2881
mp-560174,NaZn(PO3)3,4.8271000000000015
mp-560647,Ca2GeO4,3.6097
mp-561502,Ba8B5N10F,2.2188
mp-561748,CsV(MoO4)2,0.0
mp-562403,CsAsOF4,3.7524
mp-567156,Pr(Al4Co)2,0.0
mp-568782,Dy(PPt4)2,0.0
mp-568920,CaAu5,0.0
mp-568923,Ba2BN2Cl,2.7508
mp-568965,CaSiN2,3.4391
mp-569202,Ca10Mg2Sb9,0.0
mp-569512,SbICl8,1.5838
mp-569618,NaCe(PSe3)2,0.166999999999999
mp-569748,ThFe2SiC,0.0
mp-569895,EuCl3,0.0
mp-569952,K2CuCl3,2.457099999999999
mp-570039,La12Fe2I17,0.0
mp-570400,Ba7Al10,0.0
mp-570530,Cs(BCl)6,3.2599
mp-570607,Dy5C2I9,0.663999999999999
mp-570622,NaGa3Se5,1.5028000000000001
mp-571486,CuSe,0.0
mp-571619,HfAlPt,0.0
mp-572833,Cs3Sm(PS4)2,2.1903
mp-573267,YbNiGe2,0.0
mp-574224,Cs4SiTe4,1.836599999999999
mp-582146,CsNb4Cl11,0.4575
mp-608777,Eu(InAs)2,0.0
mp-6092,TbNi2B2C,0.0
mp-6120,Sr4Al6MoO16,3.5484
mp-621176,YInAu,0.0
mp-621852,La2Ge5Ru3,0.0
mp-622278,TlV2SbO8,2.7395
mp-623165,Cs2Ce10Os2I17,0.019600000000000003
mp-625147,GdHO2,3.108
mp-625888,Ba(H2O3)2,0.018499999999999
mp-628593,Yb5(InSb3)2,0.0
mp-630836,Nd3(GeRu)2,0.0
mp-634984,Mg5(Si8Pd5)2,0.0
mp-641573,Cr21(MoC3)2,0.0
mp-647805,Ce21Fe8Bi7C12,0.0
mp-6525,NaSn2(PO4)3,3.3655
mp-669330,KCe2CuSe6,0.12240000000000001
mp-669351,Rb3Ce(PSe4)2,0.21380000000000002
mp-669456,La2Al3Ge4,0.0
mp-669720,Ni3Sn2,0.0
mp-675015,Yb6U3O17,0.0
mp-675237,Na3GdI6,1.5855000000000001
mp-676287,Ce6Th4O19,0.127299999999999
mp-680240,Sb2Cl5F4,2.319099999999999
mp-680580,Zn3As2,0.137799999999999
mp-684802,Sr8La3(RuO7)3,0.0
mp-686050,CePaO4,0.0
mp-696329,RbCa(H2N)3,2.2163
mp-721692,MnP2(H4O5)2,3.9848
mp-7250,Nb6Co7,0.0
mp-753414,Lu2Pt2O7,1.7029
mp-753633,CrIrO4,0.0
mp-755082,Sr3(AsO4)2,3.8286
mp-767781,Sr16Mn8O29,0.4489
mp-771977,TmAsO4,3.570699999999999
mp-774193,La2WO6,3.654
mp-774332,Na2Co2O3,0.0
mp-775225,Nb3Ni(PO4)6,0.0
mp-780572,P3(WO6)2,2.061
mp-8481,LiPrGe,0.0
mp-849273,LiCoO2,0.0
mp-850405,Nb3V(PO4)6,0.0
mp-861888,CeBiAu2,0.0
mp-861974,PaCdPt2,0.0
mp-862363,Sc2PdPt,0.0
mp-862378,Sc2TcAu,0.0
mp-862431,Sc2AgOs,0.0
mp-862730,LiGaRh2,0.0
mp-862819,PaInAu2,0.0
mp-864734,HfInPd2,0.0
mp-864917,Dy2NiRu,0.0
mp-865003,Be2IrPd,0.0
mp-865093,TiZnNi2,0.0
mp-865149,PaAlRu2,0.0
mp-865161,Dy2AgRu,0.0
mp-865213,Ba8Bi4H2O,0.5807
mp-865271,LuMgRh2,0.0
mp-8653,CeSiRu,0.0
mp-865400,ThPt3,0.0
mp-865445,Lu2AgAu,0.0
mp-865696,HoGaRh2,0.0
mp-865710,LiSnAu2,0.0
mp-865738,LiPrHg2,0.0
mp-865833,LaYbZn2,0.0
mp-865836,YbPaRh2,0.0
mp-866154,TiBeIr2,0.0
mp-866162,YMgAg2,0.0
mp-866191,Li2YbSi,0.0
mp-867878,AlFe2Si,0.0
mp-9006,Ho2CF2,1.1355
mp-9160,La4Au2O9,1.9691
mp-9417,Sm(CuO2)2,0.0
mp-945077,YTe3,0.0
mp-972422,U3Ge,0.0
mp-977381,GdMgNi4,0.0
mp-978785,Si4MoPt3,0.0
mp-978815,Sm2TlZn,0.0
mp-980064,YbErHg2,0.0
mp-985450,CaAcIn2,0.0
mp-989590,Ca6Sn2NF,0.47120000000000006
mp-9909,Ba5Sb3,0.0
mp-998602,RbOsO3,0.0
mp-999144,SmNiC2,0.0
mvc-1832,YCu7O12,0.0
mp-1001615,LiZrSe2,0.0
mp-1005689,Sm6GaCo2,0.0
mp-1006371,CePS,0.0
mp-1007,DySb,0.0
mp-1014257,Ti3ZnN,0.0
mp-1018064,ErFeC2,0.0
mp-10184,MgSbPt,0.0
mp-1018671,CeZnGa,0.0
mp-1018740,LaCoSi,0.0
mp-1019359,ThSbSe,0.0
mp-1019517,Ba4Mg(SiN3)2,1.6017000000000001
mp-1025032,PuCu2,0.0
mp-1025404,Ce3Pd5,0.0
mp-10456,HfSiPt,0.0
mp-1064843,EuTl3,0.0
mp-1068319,Dy2InNi2,0.0
mp-1071260,LaSnAu,0.0
mp-1072737,NdAg2,0.0
mp-1077901,InCo3SnS2,0.2313
mp-1078192,Eu4Sb2O,0.0
mp-1078508,HoTe3,0.0
mp-1079214,GdSnPt2,0.0
mp-1079408,Li5In4,0.0
mp-1079815,PrSi2Rh,0.0
mp-1079831,HfReSi,0.0
mp-1080132,EuHg3,0.0
mp-1080180,Eu(GePt)2,0.0
mp-1080769,HfMnGe,0.0
mp-10838,NaYb(PS3)2,1.7542
mp-1087235,TbNiGe3,0.0
mp-1087512,TmTe3,0.0
mp-1091395,ZrGeOs,0.0
mp-1095134,LaCoGe2,0.0
mp-1095604,ErTc2,0.0
mp-1095614,ErAsS,0.1106
mp-1095628,YSnPd,0.0
mp-1102032,HfNiP,0.0
mp-1102214,BaCaPb,0.26479999999999904
mp-1102438,SmRu2,0.0
mp-1102440,EuSiPd,0.0
mp-1103346,NbGePt,0.0
mp-1104396,La5Ir2,0.0
mp-1104519,Tm(Ni2As)2,0.0
mp-1104698,Eu3Pt2,0.0
mp-1104964,Lu(Ni2As)2,0.0
mp-1105469,Mg2VB2Ir5,0.0
mp-1105484,Sm3FeO6,1.4999999999999991
mp-1105637,Eu3(GaAs2)2,0.023600000000000003
mp-1105802,CaGe2Pt,0.0
mp-1106155,Ca2MnReO6,0.16720000000000002
mp-11193,VAuS2,0.0
mp-1147558,Ba4Mg(BiO4)3,0.0
mp-11698,Tb,0.0
mp-1173546,Nb4Pb3O13,2.2294
mp-1179800,Rb(WO3)3,0.533899999999999
mp-11799,PrNi,0.0
mp-1183070,Ac2TlSn,0.0
mp-1183313,Ba2TlHg,0.0
mp-1183386,BaSrTl2,0.0
mp-1183794,DyErRh2,0.0
mp-1184537,DyMg149,0.2636
mp-1184890,HoPaRu2,0.0
mp-1185580,Mg149Pd,0.014100000000000001
mp-11859,La(SiAu)2,0.0
mp-1186208,Nb2ReTc,0.0
mp-1186508,Pm2InSn,0.0
mp-1186646,PmNdIn2,0.0
mp-1186974,Sc3Tl,0.0
mp-1187153,SrAcCd2,0.0
mp-1187426,ThMgHg2,0.1188
mp-1187641,YbEuTl2,0.0
mp-1188133,Tm2Te3,0.5788000000000001
mp-1188465,Cs3CdBr5,3.0743
mp-1188739,ErAl,0.0
mp-1189599,Pr3In5,0.0
mp-1189863,Tm5Si3,0.0
mp-1189962,PrScS3,1.8377
mp-1190170,SmSiPd2,0.0
mp-1191016,Tm3B7W,0.0
mp-1191079,Ti7P4,0.0
mp-1191153,Lu2Co12P7,0.0
mp-1191386,BaCoAs2O7,1.3662
mp-1191513,Na3Sc(BO3)2,3.6403
mp-1191713,Hf3(VGa3)2,0.0
mp-1191851,Yb3(SiNi3)2,0.0
mp-1191987,DyFeB4,0.0
mp-1192064,Th2Mn12P7,0.0
mp-1192812,CsSmGeSe4,1.6659000000000002
mp-1193180,Ti2(Ni7B2)3,0.0
mp-1193751,Ce2(Si2Pd7)3,0.0
mp-1193872,Pr3(GeRu)2,0.0
mp-1194154,Sc6Al16Rh7,0.0
mp-1194534,La3VH3O8,2.2828
mp-1194721,Sc3Mn3Al7Si5,0.0
mp-1194744,Cs3Cu20Te13,0.0
mp-1195749,Tm5Zr3(Ni4As3)4,0.0
mp-1196010,Ho2Nb2S7O30,0.135799999999999
mp-1197448,Tm(BRu)4,0.0
mp-1197646,Ba6Te10Br2O25,3.0197
mp-1198408,Ba2HRu3O10,0.042899999999999
mp-1198857,Rb4V2S4O19,2.0333
mp-1199978,Ho11(In3Si2)2,0.0