material_id,pretty_formula,band_gap
mp-1192205,KHo2Cu3Se5,1.231199999999999
mp-1192445,Yb(ErSe2)2,1.1568
mp-1194066,Hf2(Co7B2)3,0.0
mp-1194350,As4Se3,1.6249
mp-1194517,Nd2SeOF2,2.691199999999999
mp-1194704,GaSb2(TeCl2)2,0.5215000000000001
mp-1195212,Rb2Si5NiO12,3.8268
mp-1195383,As2O3,3.4555
mp-1195790,Na3U6GaF30,0.25120000000000003
mp-1195835,Ga2SbTe4Cl7,1.230899999999999
mp-1195913,Ga4Bi2O9,2.8044000000000002
mp-1196140,NbP4Se3Cl5,1.4437
mp-1196402,Mn6Ga29,0.0
mp-1196773,Cs2Mo3P5O19,0.6313000000000001
mp-1196837,Ca(Al10Cr)2,0.0
mp-1197111,Bi20(PtI12)3,1.0709
mp-1197864,Lu3Ge13Ir4,0.0
mp-1198001,Dy2HfS5,1.192199999999999
mp-1198027,LiSi2B,1.1654
mp-1199256,Ag13As3(IO3)4,0.33120000000000005
mp-1200461,Lu2Ga3Ni14,0.0
mp-1201721,U(PS3)4,0.0
mp-1202203,Cu3P4(SBr)3,1.551499999999999
mp-1202414,Nd10Se14O,1.446599999999999
mp-1204889,Yb2(Ni2B)5,0.0
mp-1205345,Sb2O3,2.5179
mp-1206749,HoNiAs,0.0
mp-1207198,Yb(ZnGe)2,0.0
mp-1207502,Zn2Cr5(PO4)6,0.780899999999999
mp-1207556,YbGa2Cu3,0.0
mp-1207724,Y2Si3Rh,0.0
mp-1207811,Y6Co2Sn,0.0
mp-1208779,Sr2NdBeO5,0.0
mp-1208825,Sr2InBr5,3.4117
mp-1209109,RhF6,0.595299999999999
mp-1209192,Sb2Cl7F3,1.5169000000000001
mp-1209284,Re3Te4Br3,0.0
mp-1210610,MgZn7O8,1.0126
mp-1211000,LiSm(WO4)2,3.7571000000000003
mp-1211047,Nd6TiInS12,0.0
mp-1211500,La10Al5I8,0.0
mp-1211503,La6Al4Fe9As,0.0
mp-1211505,LiUBr4,0.000399999999999
mp-1211998,LaIn2Cu9,0.0
mp-1212204,La6Ni20As13,0.0
mp-1213129,Dy2Si3Rh,0.0
mp-1213413,CsHo(MoO4)2,3.608099999999999
mp-1213986,Ce5GeSb2,0.0
mp-1214310,Ca2Gd3Si3O13,0.0
mp-1214648,Ba2Sr5B4S13,2.5482
mp-1214805,AsPb2S3I,1.8256000000000001
mp-1215368,Zr4FeCo,0.0
mp-1215642,Zn2SiGeN4,2.550799999999999
mp-1215777,Zn2CrFe3O8,1.658799999999999
mp-1215879,Zn4Cu11(SnSe4)5,0.0
mp-1216566,TlPdPb,0.0
mp-1216851,V32N3,0.0
mp-1217620,Tb4Si3Ge,0.0
mp-1217864,TaVNi,0.0
mp-1217963,SrPrAlO4,3.260399999999999
mp-1217964,TaB2Mo3C2,0.0
mp-1218031,SrPb3S4,1.0408
mp-1218178,SrLaNiO4,0.0
mp-1218371,Sr4SeS3,2.542499999999999
mp-1218414,Sr2Zn3Cd,0.0
mp-1218456,Sr4NbCoO8,1.4684
mp-1218513,Sr4Fe3MoO12,0.0
mp-1218556,Sr2V3O9,1.7497
mp-1218673,Sr4Zn51,0.0
mp-1218707,Sr2SeS,2.410399999999999
mp-1218746,Sr2MnNbO6,1.5063
mp-1218837,Sr2CoSbO6,0.7464000000000001
mp-1219073,SmFe2Co2B,0.0
mp-1219579,Sb4Cl13F7,1.5991
mp-1219597,RbFeCuF6,0.0
mp-1219713,PrNdSb2,0.0
mp-1219721,PrNdAl6,0.0
mp-1219889,Pr2Ho,0.0
mp-1219929,Pr2Al3Ge,0.0
mp-1220267,Nd4Co3Ge8,0.0
mp-1220437,Nd2MnFe3Si4,0.0
mp-1220859,NaAlSi3O8,4.8321000000000005
mp-1220936,NaScSnO4,2.6166
mp-1221090,NaCaMg2F7,6.455999999999999
mp-1221165,Na4H4PdPt,0.0
mp-1221898,Mn2GeRu,0.0
mp-1221921,MgZnCo,0.0
mp-1222148,Mn4Co11Ge5,0.0
mp-1222226,PrCd6,0.0
mp-1222504,Mn12Ge4N3,0.0
mp-1222529,Li4GeS4,2.508099999999999
mp-1223001,LaThUS5,0.0
mp-1223427,La2Ni4GeP3,0.0
mp-1223446,KIO3,2.8729999999999993
mp-1223897,Ho8Sb3O8,0.0
mp-1224124,In4P6Pb2O23,3.7065
mp-1224400,InCuSeS,0.22790000000000002
mp-1224510,Hf(Nb2B3)4,0.0
mp-1224679,GdAlCu4,0.0
mp-1224861,Ga2CuAgTe4,0.5144000000000001
mp-1224918,GdHoAl6,0.0
mp-1225118,Er(Fe5Si)2,0.0
mp-1225167,Gd3Y3Fe23,0.0
mp-1225837,Cu4PtO5,0.0
mp-1225891,Cu2GeTe3,0.0
mp-1225921,Cu12Sb3AsS16,0.0
mp-1225963,CsK(Fe2S3)2,0.010699999999999
mp-1226460,Co3PW2,0.0
mp-1226733,CdHgSe2,0.0926
mp-1227674,Bi3Sb5Pb4O21,1.375499999999999
mp-1227725,BaSr,0.0
mp-1227912,Ca11(Cd9Au2)2,0.0
mp-1228321,Ba3ZrNb5O12,0.0
mp-1228329,Ba2PtAu,0.0
mp-1228368,Ba6(BiSe2)13,0.0
mp-12287,La3NbO7,2.7255000000000003
mp-1229179,AlIn3(CuSe2)4,0.043099999999999
mp-1232230,EuSe2,0.0
mp-1245698,ZnCrN2,0.0
mp-1246504,Ca4OsN4,0.0
mp-1272749,CoO2,0.0
mp-12737,YB2Rh2C,0.0
mp-1280748,Y(FeO2)2,1.671199999999999
mp-1286332,Sr2Co(BrO)2,2.1974
mp-12866,SrSnO3,1.6193
mp-12872,ErIn5Co,0.0
mp-1291775,Ba2TaMnO6,1.3996
mp-1299695,Sr2MnNbO6,1.488899999999999
mp-13045,EuCuSn2,0.0
mp-13053,SrSi,0.0
mp-1318835,Ba2TaMnO6,1.3997000000000002
mp-13444,LiSn,0.0
mp-13532,La2ZnNi2,0.0
mp-13745,Na5FeO4,2.1701
mp-13765,Ce3Co11B4,0.0
mp-14474,Ta2PtSe7,0.0
mp-14577,Rb4Ta2S11,1.7127999999999992
mp-153,Mg,0.0
mp-1551,Te2Ir,0.0
mp-15651,NiSe,0.0
mp-15681,CrAs2,0.0
mp-1580697,Ca3Co2O7,0.3367
mp-1653877,Sr6Ti3FeO14,0.0
mp-17765,Ta2ZnO6,3.066899999999999
mp-18791,Ba4Mn3O10,0.0
mp-19002,TmNiO3,0.0
mp-19175,MnSe2O5,2.4005
mp-19483,TmFeGe2O7,0.0
mp-20283,Co2P2O7,0.9748999999999991
mp-217,ErTl,0.0
mp-22066,Dy(CuGe)2,0.0
mp-22137,DyCoO3,1.183399999999999
mp-22330,TlVO3,3.0073
mp-22376,PrNiSn,0.0
mp-22387,U2N3,0.0
mp-22712,YPd2Pb,0.0
mp-23507,InSn2Br5,2.3079
mp-2617,B2Pd5,0.0
mp-26179,LiMnP2O7,1.2859999999999991
mp-27407,Ca12Be17O29,3.6698999999999993
mp-27467,Ta6S,0.0
mp-27527,Te2AuI,0.0
mp-27528,Cd4As2I3,1.1726
mp-27615,U(PO3)4,0.26320000000000005
mp-27710,CrB4,0.0
mp-27902,BiSe,0.0
mp-28151,Ho3Ni19B10,0.0
mp-28442,TlAs5S8,1.6280000000000001
mp-28571,La2Br5,0.29760000000000003
mp-28962,Ti4Bi2O11,2.1216
mp-29041,La11V4O26,0.002899999999999
mp-29299,TeSeO4,2.9645
mp-29458,Rb3Mo2Cl9,0.9479000000000001
mp-29573,Sb4S5Cl2,1.869199999999999
mp-29667,Si2Ni3,0.0
mp-30009,KrF2,2.932299999999999
mp-30013,SbKr3F11,1.3289
mp-30607,ErMg2,0.0
mp-30797,Nb5Te4,0.0
mp-31017,Ce4B2N5,0.0
mp-34148,Li2MnCl4,1.8782
mp-3597,BaRuO3,0.0
mp-3707,CaGe2O5,2.4488
mp-4395,TbScGe,0.0
mp-48,C,0.0
mp-491,La3Se4,0.0
mp-504548,MnH4(ClO)2,3.9217
mp-504708,CsCoCl3,0.0
mp-504937,SbSe9Cl7,1.0831
mp-505042,Cu(BiO2)2,0.0
mp-505537,Al3(Co10B3)2,0.0
mp-505685,Nb2Te4O13,2.5627999999999993
mp-510285,Ti11Se4,0.0
mp-510490,GdScS3,1.1215
mp-513,ErGe3,0.0
mp-530141,Li7Ti16O32,0.0
mp-532016,Ca12Al14O33,2.0478
mp-541312,Ge3(Te3As)2,0.5336000000000001
mp-541996,Pr2SiTeO4,1.7596
mp-542461,Se,1.5816
mp-542678,AlAs(H2O3)2,3.642499999999999
mp-5427,Mg2P2O7,5.326
mp-542834,Ba14Na17CaN6,0.0
mp-550886,Co2P2O7,0.9724
mp-554177,La4Cu3MoO12,0.22529999999999903
mp-555114,VCdClO3,2.7065
mp-555464,KRb2NiF6,0.0
mp-556093,CuMoF6,0.0
mp-556386,KNa3WO5,3.596899999999999
mp-557931,CsVOF3,2.7489
mp-557934,Nb15MoO40F,1.803799999999999
mp-558152,GdAg(PO3)4,0.355699999999999
mp-558193,K2Cu3(AsO3)4,0.0
mp-558338,Tl2CuAsO4,1.4971
mp-558408,Nb4Te9I4O,0.25929999999999903
mp-558610,Sc(ReO3)2,0.0
mp-558680,Ba2Zn(BO2)6,4.113399999999999
mp-558798,BiPO4,3.972199999999999
mp-559161,CrCdF6,0.0
mp-559294,K4WS3O14,3.4321
mp-559505,VTeO4,2.367599999999999
mp-559575,AsSe(IF2)3,1.3837000000000002
mp-559822,La2TaCl3O4,3.6846
mp-560192,TaP4(SCl)5,2.177
mp-560875,K2Ge4O9,3.0057
mp-561545,Sn4P2O9,3.1136
mp-567800,Sm5Si4,0.0
mp-567968,Mn11Si19,0.8909
mp-568286,C,0.041199999999999
mp-568363,C,0.060500000000000005
mp-568376,Ta5Ga3,0.0
mp-569246,Tl2HgGeTe4,0.18709999999999902
mp-569462,Pr15Si10Ni7,0.0
mp-569754,Ba7Sn3Se13,1.4092
mp-569918,K13Na2W7N19,1.5516
mp-569945,Tb2Ni17,0.0
mp-570362,Sr5In3,0.0
mp-570397,Ho2(GePt3)3,0.0
mp-570885,LaCoSb3,0.0
mp-570901,Yb2Au,0.0
mp-570934,NdPt,0.0
mp-570983,Sr4Sn2Se9,0.7311000000000001
mp-571030,TlPd3,0.0
mp-571034,CaCu9Sn4,0.0
mp-571160,Tl2Pt,0.0
mp-571469,Sm3Mg13Zn30,0.0
mp-574498,Cs3Bi2,0.0
mp-581775,Cs5(KPb6)3,0.738599999999999
mp-590,NiAs,0.0
mp-6027,Ba2Tl2CuO6,0.0
mp-607298,Cs2Pd(ICl2)2,1.0024
mp-616232,TlCr4BiO14,2.0799
mp-619546,Cs2HgBr4,2.479
mp-622636,TmInCu2,0.0
mp-6323,BaYb2CuO5,0.0020999999999990002
mp-642477,U4Ga12Fe,0.0
mp-646102,Al3Bi5Cl12,1.8969
mp-646633,V2Ni(PO5)2,1.8184
mp-646749,Nb2Ni4O9,2.4494
mp-647152,CsEr13(CoI12)2,0.5342
mp-649982,Sb8(Pb3S7)3,1.487
mp-650031,La4(GeS4)3,1.923899999999999
mp-653631,BaNa4Cu3F12,0.424799999999999
mp-667362,Ce3NCl6,0.0
mp-669388,Gd2Se2O,1.3044
mp-6696,K2Ti2(PO4)3,0.0
mp-675355,Sr2V3O9,2.1002
mp-675569,KPF6,7.131299999999999
mp-675767,La2YbS4,2.141299999999999
mp-677454,P6(Pb2O5)5,2.513199999999999
mp-680178,In5Br7,2.0373
mp-690550,Co7(RuO6)2,0.0
mp-697022,Ca6Si2H6O13,3.499199999999999
mp-703468,Na3SiH5O6,3.885099999999999
mp-705116,Sr2MnMoO6,1.3101
mp-7062,Mg3Al9FeSi5,0.0
mp-706544,NaGa(H2N)4,2.7434000000000003
mp-7073,BaTiS3,0.043699999999999004
mp-753098,LiCuF2,1.8469000000000002
mp-753693,Ho2Ge2O7,3.851
mp-753767,LiMnBO3,2.8468999999999998
mp-753811,Li2VCrO4,1.725
mp-753983,In2HgO4,0.361799999999999
mp-754029,Li2VCrO4,1.775099999999999
mp-754358,ZnSeO4,1.865599999999999
mp-754646,Dy2Ge2O7,2.9732000000000003
mp-755021,ReO3,0.0
mp-755054,Ti3N2O3,1.448199999999999
mp-756598,ErTa3O9,3.266599999999999
mp-757372,Sr5U5O19,0.0
mp-757655,Li17Ni11O28,0.45580000000000004
mp-757804,LiCoPO4,3.1151
mp-758053,NbCrO4,0.0
mp-758143,Li3Ni5O8,0.0
mp-758307,LiV(PO3)3,2.8372
mp-758894,Li2Ti(TeO4)3,1.5618
mp-759671,Li2CoSiO4,2.9947999999999992
mp-759923,Na3(NiO2)5,0.403999999999999
mp-76,Sr,0.020899999999999003
mp-760476,LiU3O8,0.13390000000000002
mp-761024,Na2Cd2O3,0.38370000000000004
mp-761247,Li2CoSiO4,2.9177
mp-763169,V2(OF)3,1.4377
mp-765152,Ca11Tl9O24,0.0
mp-766220,ZnCr3(SO4)6,0.0
mp-766570,Ce3Th4O14,1.9668
mp-767825,Cr22Ni50Mo3,0.0
mp-768469,TmGaO3,2.9241
mp-772509,Li2NbV3O8,1.1114
mp-773116,La20S29O,1.946499999999999
mp-774043,MnV(P2O7)2,1.0275
mp-774868,ZnP4O11,4.627099999999999
mp-774925,RbLiMn3O4,0.685999999999999
mp-775783,Hf2N2O,2.0671
mp-775824,Zr2N2O,1.6253000000000002
mp-776259,Hf2N2O,2.0534
mp-776281,Zr2N2O,1.5830000000000002
mp-779404,Li3Cr2(AsO4)3,2.670199999999999
mp-779980,Hf2N2O,1.9985
mp-784630,Ni2Mo,0.0
mp-8490,LiGe,0.0
mp-849792,Mn11Fe(PO4)12,0.37759999999999905
mp-850332,V4(OF3)3,0.8616
mp-862563,Sc2BeTc,0.0
mp-864888,Dy2Mg,0.0
mp-865103,DyGa3,0.0
mp-865431,YbZnAu2,0.0
mp-865910,CdAg3,0.0
mp-865939,LiMg2,0.0
mp-867539,Sr2V3O9,1.7077
mp-8850,Dy2S3,0.760599999999999
mp-891956,Ca10V6O25,2.3503
mp-971926,YErRu2,0.0
mp-972180,YbMgIn2,0.0
mp-972370,Yb2InHg,0.0
mp-972478,TmLuHg2,0.0
mp-972997,HoErCd2,0.0
mp-973058,LiLu2Al,0.0
mp-973266,Lu3Al,0.0
mp-973342,SbRh3,0.0
mp-973433,LuScRu2,0.0
mp-974421,IrRu,0.0
mp-974973,HfZrZn2,0.0
mp-976256,Li3Mg,0.0
mp-976378,La3Sn4,0.0
mp-976590,HoTlRh2,0.0
mp-978846,SnI2,1.4398
mp-979429,YHoCd2,0.0
mp-979931,YNbRu2,0.0
mp-984703,CeGe5,0.0
mp-999306,PrAu,0.0
mvc-4415,Ta2O5,2.4175
mp-1007661,InSb,0.0
mp-10167,Na3SbS4,0.0
mp-1019515,Ba3Ga3N5,1.439799999999999
mp-1025229,TiGa5Co,0.0
mp-1025531,LaAs2Au,0.0
mp-1029354,MnZn2N3,0.0
mp-1029532,Ca2CoN2,0.0
mp-1039529,CaMg2,0.0
mp-10662,K2CO3,3.2934
mp-10670,Ca3(AlGe)2,0.0
mp-1067154,KNO2,2.527
mp-1068377,CsEuCl3,0.736399999999999
mp-1068685,U2PtC2,0.0
mp-1072037,HoCuGe,0.0
mp-1072744,Hf2Bi,0.0
mp-1078079,AgPPd5,0.0
mp-1078784,Sc3RhC4,0.0
mp-1079096,Cs2NaLaBr6,3.8472
mp-1079198,Sm(CrB3)2,0.0
mp-1079605,Dy2NiSn6,0.0
mp-1079634,Tb2SnAu2,0.0
mp-1079797,SmCdCu,0.0
mp-10798,HgSeO3,2.3238
mp-1093999,Zn2Ag,0.0
mp-1095057,VCo3,0.0
mp-1095141,Sr2MnMoO6,1.2193
mp-1101513,LiV4P7O24,1.8537
mp-1102478,ErAsPt,0.0
mp-1103150,MoPRh,0.0
mp-1103846,Na(MoSe)3,0.41550000000000004
mp-1103999,Ba3InHg10,0.0
mp-1104166,Sc2CdSe4,0.623899999999999
mp-1104225,Lu3Ga9Pd2,0.0
mp-1105287,Ti4Pb2O9F2,2.3576
mp-1105406,BaP3,1.4242
mp-1106023,NiSb3,0.0
mp-1111949,K2AlAgF6,3.0677
mp-1112106,Cs2YTlBr6,3.9156
mp-1112109,Cs2TlBiCl6,2.2076000000000002
mp-1112498,Cs2TlBiBr6,1.729299999999999
mp-1112942,Cs2PrAgI6,2.7826
mp-1113029,Cs2KTlCl6,2.3781
mp-11132,KPrTe4,0.18330000000000002
mp-1113560,Rb2ScCuCl6,1.9245
mp-1113793,Rb2DyAgCl6,3.7567999999999993
mp-1114333,Na3RhF6,2.1335
mp-1114370,Rb2TlBiF6,3.367099999999999
mp-1114526,Rb2ScInI6,2.062
mp-1120721,RbGeBr3,3.1453
mp-11350,CaAl9Co2,0.0
mp-1147686,Li10Zn(PS4)4,2.448
mp-1147697,Li10Zn(PS4)4,2.525
mp-1147728,Li4Zn(PS4)2,2.6651
mp-1178215,FeOF,0.0
mp-1178583,Cs3DyO3,2.086699999999999
mp-1179009,Tb5BiAu2,0.0
mp-1180434,Na2H18SO9,3.6833
mp-1180573,Nb6HI11,0.127499999999999
mp-1183216,AlCu3,0.0
mp-1183227,AgAu,0.0
mp-1183490,Ca(CuAs)2,0.0
mp-1183585,CaHoZn2,0.0
mp-1183818,DyLuRu2,0.0
mp-1184265,GaRh3,0.0
mp-1184302,ErTm3,0.0
mp-1184409,Gd2MgCd,0.0
mp-1184681,Hf3Sc,0.0
mp-1184709,Hg,0.3035
mp-1184717,Ho2CuPt,0.0
mp-1184872,HoTmCd2,0.0
mp-1185338,LiCu3,0.0
mp-1185454,LiScIn2,0.0
mp-1185496,LuHfRh2,0.0
mp-1185559,CsRb3,0.0
mp-1185771,Mg2Pd,0.0
mp-1185942,MgS,3.3884
mp-1185981,Mn2IrRh,0.0
mp-1186088,Na3Tl,0.0
mp-1186455,PaInPd2,0.0
mp-1186605,PmLu3,0.0
mp-1186967,Sc3Hg,0.0
mp-1186978,ScCdPt2,0.0
mp-1187233,TaGeRu2,0.0
mp-1187367,TbRh2Pb,0.0
mp-1187507,YbTmZn2,0.0
mp-1187649,Tm3Sn,0.0
mp-1187717,Y,0.0
mp-1187789,Y3Er,0.0
mp-1187840,YErCd2,0.0
mp-1187868,YLuRh2,0.0
mp-1187965,Yb2TlIn,0.0
mp-1188095,SnPbS3,1.1473
mp-1189023,Cr2Se3,0.0
mp-1189784,Ho(BRh)4,0.0
mp-1189857,MnO2,1.528
mp-1190476,Na2Zn(GeSe3)2,1.4633
mp-1191404,Ce2Fe17C3,0.0
mp-1191708,TaTe4Ru,0.0
mp-1191777,NbCr2,0.0
mp-1191817,Li2In2SiSe6,1.4969000000000001
mp-1192146,NbTe4Os,0.0
mp-1192877,Ti6Al16Co7,0.0
mp-1193715,Rb(WO3)3,0.0
mp-1194183,Ca2SiSe4,2.417899999999999
mp-1194929,KNbV2O8,2.4096
mp-1194970,KAsO3,3.0179
mp-11952,KHg11,0.0
mp-1195808,Ag4Sn3S8,0.22930000000000003
mp-1196175,Y2Ni17,0.0
mp-1196315,BaCe(SnS3)2,0.0
mp-1196930,BiXeF7,2.182699999999999
mp-1197167,Nd6Fe13Ag,0.0
mp-1197200,Zn89(Cr2Au5)2,0.019299999999999002
mp-1197654,Dy2Ni17,0.0
mp-1198373,K3Nd(Si2O5)3,3.9943
mp-1198492,Yb5(Ni2Ge5)2,0.0
mp-1198790,Nb12WO33,1.9583
mp-1199935,Sr2Re6S11,1.3731
mp-1199952,Nd6InFe13,0.0
mp-1200944,Pr5(SiN3)3,1.8781999999999992
mp-1202502,Cs4Ge5(PbS4)4,2.2965
mp-1204230,Sr4Ga2O7,2.9805
mp-1205385,Dy4CrGa12,0.0
mp-1205744,Y2MgGa2,0.0
mp-1207028,Ho2FeSi2,0.0
mp-1207114,K2TaNbO6,1.7027999999999999
mp-1207387,Zr2Ag3F14,0.2053
mp-1208000,Tm2Cu(GeO3)4,1.0321
mp-1208165,YZr6(PO4)9,3.6646
mp-1208298,U6P13Rh20,0.0
mp-1208718,Sr4Mn3BO10,0.0
mp-1208818,Sr2LaBeO5,0.0
mp-1208897,Sr(MgIn)2,0.0
mp-1209341,PrSBr,2.473599999999999
mp-1211763,KGdTiO4,2.153
mp-1211807,K2Y2(PO4)3,0.031099999999999003
mp-1212190,HoFeGe2O7,1.2691
mp-1213115,CsYbMnSe3,0.0
mp-1213209,CsTm(WO4)2,3.350399999999999
mp-1213325,Cu3B7ClO13,0.17320000000000002
mp-1213377,Ga(Ni3B2)4,0.0
mp-1213603,GdIn2Cu9,0.0
mp-1214210,Ca5V3O12,0.0
mp-1214444,BaMnAlF7,0.050399999999999
mp-1214880,Al2Te4O11,2.777399999999999
mp-1215258,ZrBeB,0.0
mp-1215289,ZrTa(SiRu)2,0.0
mp-1215615,ZnCd(GaS2)4,2.1694
mp-1216115,Y6Mg(GeS7)2,2.055599999999999
mp-1216130,Y2VFeO6,0.0
mp-1216356,Y4ZrNi25,0.0
mp-1216557,TmAlGa,0.0
mp-1217210,Ti2Te3,0.0
mp-1217285,TiAl4Ni15,0.0
mp-1217302,Th2CoSi3,0.0
mp-1217354,ThUSb4,0.0
mp-1217771,Tb9Al5Se21,1.6377000000000002
mp-1217778,Tb3Ni7P5,0.0
mp-1218277,SrLa2BeO5,3.8244
mp-1218389,Sr4Se3S,2.2823
mp-1218465,SrCa3(RuO3)4,0.0
mp-1218548,Sr3Sn3Au8,0.0
mp-1218608,Sr4Li3InGe6,0.0
mp-1218692,Sr2TiFeO6,0.0
mp-1218800,Sr2Ti5(Bi2O9)2,2.317999999999999
mp-1218855,Sr2AlGa3,0.0
mp-1219303,Si3Ag10S11,0.8194999999999991
mp-1219640,Rb3I2Br,3.8666
mp-1219689,Rb6CuAgO4,1.1146
mp-1219855,PrThUS5,0.0
mp-1219995,Pr6Al3Fe11,0.0
mp-1220185,NdThUS5,0.0
mp-12205,Ti4O7,0.0
mp-1220596,Nb4AgS8,0.0
mp-1220624,Nd2EuBeO5,0.3144
mp-1220668,Nd12Si5Se28,0.9104999999999991
mp-1220812,Nb12Tl(Te3As)4,0.0
mp-1221012,NaGdTi2O6,2.3162000000000003
mp-1221216,Na4Eu2GeAs4,0.0
mp-1221381,Na3Th6ZnF29,5.287199999999999
mp-1221650,MnCdTe2,0.42700000000000005
mp-1221664,MnCd2Te3,0.39440000000000003
mp-1221816,Mn2NiSb2Pt,0.0
mp-1221928,MnCu2Sn3S8,0.0
mp-1222583,LuTaTiO6,3.3484
mp-1222995,LaMnCuGe2,0.0
mp-1223184,La3Se4Cl,1.2049
mp-1223199,La6NbGa11O28,3.1828
mp-1223312,KTi3NbO9,2.5069
mp-1223314,La7Nb3(W2O15)2,3.2923
mp-1223424,La4Pr(CoP)10,0.0
mp-1223519,KNa7V8O24,3.2372
mp-1223711,LaCe(GePt)4,0.0
mp-1224034,Ho2Al3Fe,0.0
mp-1224211,K3Ag9(SbS3)4,1.6541000000000001
mp-1224599,GdYH4,0.0
mp-1224744,Gd3Si2BrO8,2.239099999999999
mp-1224794,Fe22B6W,0.0
mp-1224845,GaAgSeS,0.6333000000000001
mp-1224940,Ga3Ni12Sn,0.0
mp-1225055,Er2Co3Cu,0.0
mp-1225121,EuSi2PdAu,0.0
mp-1225580,LaCe(CuSi)4,0.0
mp-1225738,CuBi5S8,0.26430000000000003
mp-1226056,Co5CuS8,0.0
mp-1226234,CsTi3P5O19,2.4766
mp-1226337,Cr9FeB6,0.0
mp-1226458,Co3NiSb12,0.0
mp-1226538,CeZn2Ni3,0.0
mp-1226546,CeUO4,0.0
mp-1226750,CeGa2Ni3,0.0
mp-1226783,Cd4Te3Se,0.46520000000000006
mp-1226899,Ce2SiGe,0.0
mp-1227074,CeCdIn,0.0
mp-1227843,BaSr(PbO3)2,0.5670000000000001
mp-1228063,Ba3TiAl10O20,3.2536
mp-1228281,Ba3ZrTa4O15,2.4682
mp-1228491,Al2S3,3.0595
mp-1228588,Ba2Ti3Nb4O18,2.5947
mp-1228922,AlCr6Si,0.0
mp-1229031,AgPd2Au,0.0
mp-1231,Cr3Ga,0.0
mp-1246735,Sr2CoN2,0.0
mp-1247251,Ba2MoN3,0.0
mp-12544,Ho3Pd2,0.0
mp-1273081,CaLa2CoO6,0.12309999999999902
mp-1276755,Sr2FeOsO6,0.18480000000000002
mp-1280405,LiNi3O4,0.0
mp-1283849,SrCoO3,0.0
mp-1301795,Li4Ni3BiO8,0.3271
mp-1305321,Li2MnO2F,1.7081
mp-1306614,Li2MnO2F,1.7682000000000002
mp-1308028,Li2TiV3O8,0.9441
mp-13082,Mn2CoSi,0.0
mp-1310415,Li2Mn3TeO8,0.49960000000000004
mp-13649,Cs2AgF4,0.0
mp-14323,Ba3Ho4O9,3.3859
mp-14578,Cs4Ta2S11,1.7668
mp-14620,Tm2CdSe4,0.653
mp-15148,K4Nb2S11,1.3943
mp-1638,SrAl2,0.0
mp-16538,Ba5Gd8Zn4O21,2.79
mp-16565,CdCu2SnSe4,0.1728
mp-16889,Na6Sn2Se7,1.417899999999999
mp-16930,Na3GeTe3,1.2201
mp-17322,SrCu2SnS4,0.4112
mp-17377,KNb(PO4)2,3.1782
mp-17959,Nd2SiTeO4,1.788
mp-19930,Nd2Ru2O7,0.0
mp-20302,Fe2BO4,1.1681
mp-2103,CuAu3,0.0
mp-21175,TaGaNi2,0.0
mp-21562,Sm3InSe6,0.709299999999999
mp-21658,Sm5Ga3,0.0
mp-21913,NaPWO6,3.765799999999999
mp-22023,Pb3SO6,2.958799999999999
mp-22622,YbCoB4,0.0
mp-22695,NdSnPd,0.0
mp-23134,Mg2VBiO6,3.3647
mp-23752,Cs2MgH4,3.054
mp-23806,BaAsH3O5,3.9771
mp-24155,ZrH2,0.0
mp-2424,LaZn5,0.0
mp-26359,Li2Co(PO3)4,3.2344
mp-2648,NbS2,0.0
mp-26630,TiP2O7,2.7356
mp-2699,CaSi2,0.0
mp-27284,V3ZnO8,1.9703
mp-27338,SrFeF5,3.7151
mp-27482,Ag4P2S7,1.6556000000000002
mp-28176,Te2PdCl10,1.5543
mp-28353,NaTe,0.5388000000000001
mp-28511,Zr2P,0.0
mp-28584,Tl2CuI3,1.5739
mp-28754,Nb3GeTe6,0.0
mp-28809,TlBS3,1.7414
mp-29116,Ta3SeI7,0.5787
mp-29922,Sb5PO10,3.1376
mp-30075,Ti4FeS8,0.0
mp-30442,NpBe13,0.0
mp-30542,Ni4P16W,0.0
mp-30625,Dy2Tl,0.0
mp-3071,Nd3Ni13B2,0.0
mp-3103,Nb4AlC3,0.0
mp-31115,Er3GaO6,3.538999999999999
mp-31304,Zr(TeCl)6,1.0223
mp-31463,Tb5Bi3,0.0
mp-31780,Fe4(PO4)3,1.579899999999999
mp-3207,Sr(NiGe)2,0.0
mp-32613,Ce5O9,0.0
mp-36734,CeThO4,1.887
mp-37605,LiNdSe2,1.5230000000000001
mp-42,Ta,0.0
mp-4252,SnPS3,1.8218
mp-4590,Mg(GaO2)2,3.112
mp-505176,Co2P2H4O9,0.0
mp-510412,Si3Ru4,0.0
mp-510604,Mn2O3,0.0
mp-540602,RbIn(MoO4)2,3.7315
mp-540786,Mo4O11,0.0
mp-540872,AgSbO3,0.09480000000000001
mp-540878,La3Re2O9,0.20669999999999902
mp-540923,Ba3SnP3,0.7994000000000001
mp-541183,Ta2NiSe7,0.0
mp-541433,Cd(BiO2)2,2.7121
mp-542044,Zr11Sb18,0.056999999999999
mp-550206,CoO2,0.0
mp-554219,U(TeO3)3,1.7302
mp-554362,BaZnFeF7,3.4085
mp-555013,Tl3CO3F,2.548499999999999
mp-555639,Sm3OsO7,0.0
mp-555786,Si(PbO2)2,2.517
mp-556048,Nb2O5,1.5314
mp-556362,BiSeClO3,3.6267
mp-556375,Ba2LaSbO6,3.8494
mp-556872,RbCO2,3.001
mp-557016,TaP4S6Cl5,2.3162000000000003
mp-557144,Rb2Cr2O7,2.7328
mp-557307,Nd5Ti4FeO17,1.9546000000000001
mp-557321,As4S3,2.4852
mp-558019,Ce3Si2BO10,0.0
mp-558277,Ti3(BiO3)4,2.3653
mp-558552,Ta6S,0.0
mp-558695,Ba2Mn2Si2O9,2.475599999999999
mp-559589,V2Ni(TeO5)2,0.9141
mp-559715,Li2Cd(PO3)4,4.5943000000000005
mp-560039,NaY(SiO3)2,4.7097999999999995
mp-560381,RbIn3F10,3.4446
mp-560610,Sr2Co(ClO)2,0.8096000000000001
mp-560620,BaZr(PO4)2,3.836299999999999
mp-560645,Ca2NbInO6,3.2607
mp-567207,SrIn4,0.0
mp-567891,NdAg2,0.0
mp-567914,TeI4,1.8130000000000002
mp-568347,NbSe2,0.0
mp-568484,La3CBr5,2.2304
mp-569251,Lu7Sb3,0.0
mp-569280,Y4Si5Rh9,0.0
mp-569794,Ta,0.0
mp-569841,Ba19Li44,0.0
mp-570173,K2SnCl6,2.4713000000000003
mp-570930,Bi2Pb2Se5,0.412099999999999
mp-571416,Sr14Al8Ge3,0.047400000000000005
mp-571468,Ho3CuSiSe7,1.724399999999999
mp-572670,B2S3,2.4329
mp-573231,CsVSO6,2.4242
mp-573908,Sr11(MgSi5)2,0.0
mp-574663,CdI2,2.4290000000000003
mp-580155,U(Cr3P2)2,0.0
mp-582585,SrCu2(PO4)2,0.001099999999999
mp-5945,MnSiO3,2.6185
mp-608016,Mg(FeO2)2,0.0
mp-619101,Cs6ZnGe8,1.262299999999999
mp-620369,TaAg7S6,0.972499999999999
mp-623088,KTbF5,0.0025999999999990002
mp-637249,LiEu2Ge3,0.0
mp-646039,In7Cu10,0.0
mp-648006,Tb4In20Ni11,0.0
mp-650224,Fe7(P2O7)4,1.115
mp-652621,In5Br7,2.0735
mp-672274,YbIn4Rh,0.0
mp-674359,Tl3PbCl5,3.3948
mp-674367,Re6Pb5O19,0.0
mp-674953,Cu2GeTe3,0.0
mp-676840,Ag13(PbO3)6,0.0
mp-680135,Cu3Bi7(PbS5)3,0.6997
mp-680143,Ge3Pb11O17,2.141299999999999
mp-680551,NdNi4B,0.0
mp-685249,K2OsO5,1.3774
mp-696275,SnH8(NCl3)2,2.6886
mp-7002,NaTiO2,0.0
mp-703343,Li2Sn(H5O4)2,3.997499999999999
mp-705562,Mo4P5O24,1.4745
mp-734733,Ca19(Mg4H27)2,2.7886
mp-7377,Ba3(AlSn)2,0.0
mp-752866,V4O7F5,1.2091
mp-752947,NaTiS2,0.0