material_id,pretty_formula,band_gap
mp-1195122,V3(SbCl12)2,0.0264
mp-1195178,Ba5LaSi6,0.0
mp-1195251,Rb4Ge(PSe3)4,1.3687
mp-1195743,V18P9C2,0.0
mp-1195822,CsNb2PSe10,0.8597999999999991
mp-1195876,U2B6Mo,0.0
mp-1195907,Nd4GaSbS9,2.184599999999999
mp-1196167,NbFeSi2,0.0
mp-1196177,GdPS4,1.4245
mp-1196411,Ce2H16S3O20,0.7388
mp-1196619,Ir2(Se3Cl2)3,1.5989
mp-1196999,Y3Rh2,0.0
mp-1197266,Nd7Se4Cl3O17,3.7616
mp-1197580,Li6Ca17Hg9,0.0
mp-1197789,La4In21Pd10,0.0
mp-1198126,NaUP3O11,2.4436
mp-1198900,CdSb5OF28,0.024200000000000003
mp-1198979,K6Na14MgTl18,0.025300000000000003
mp-1199122,Li2Ca(SiN2)2,3.473899999999999
mp-1199482,K2Gd2Sb2Se9,0.9272
mp-1199487,MoH8(S2N)2,1.5449000000000002
mp-1199583,Nd12(ReC3)5,0.0
mp-12012,KPrGeSe4,1.6360999999999999
mp-1201577,Nd2USe5,0.038399999999999004
mp-1201672,NaZn2(BH4)5,6.159499999999999
mp-1201962,Dy4Te3N2,1.8379
mp-1202537,Nb8S8O45,0.017
mp-1202782,Hg3Pd8Se9,0.0
mp-1203090,HfMnSi2,0.0
mp-1203141,Lu3Ge13Os4,0.0
mp-1203849,Ga8Sb7Se8Cl29,1.684699999999999
mp-1203885,InHg6Sb4Br7,1.0803
mp-1204314,Gd(BO2)3,2.5836
mp-1204402,LiAl(CN2)2,3.5402
mp-1204635,Dy2(Ni2B)5,0.0
mp-1205023,Sr4Mn2Bi4O13,0.0
mp-1205070,ScMnSi2,0.0
mp-1205523,Sc2CoGe2,0.0
mp-1205756,DyMgAu,0.0
mp-1206002,Er6FeBi2,0.0
mp-1206320,RbScCl3,0.0
mp-1206337,Eu(AgGe)2,0.0
mp-1206674,YCdAu,0.0
mp-1206764,CaAgSn,0.0
mp-1206912,Lu3GaC,0.093999999999999
mp-1206931,Cr(BMo)2,0.0
mp-1207756,Y4Si5Ir9,0.0
mp-1207775,Y2(Ga3Rh)3,0.0
mp-1208174,Tl2V3O8,2.1147
mp-1208554,TaSiPt,0.0
mp-1209197,Sr3Er2(GeO4)3,3.1284
mp-1209216,Sm2(Ga3Ru)3,0.0
mp-1209443,Rb3TmCl6,5.0013
mp-1209910,Pm2(WO4)3,3.9657
mp-1210336,Nd6Nb4Al43,0.0
mp-1210677,Mg2Ir3,0.0
mp-1211232,LaAl3Ni2,0.0
mp-1211263,La(Al5Fe)2,0.0
mp-1211446,Li7PSe6,0.9265999999999991
mp-1211601,KEr(MoO4)2,3.567999999999999
mp-1211641,KLa(SeO4)2,3.510199999999999
mp-1212025,La3Tm2(GaO4)3,3.1886
mp-1212049,K2Mg2(MoO4)3,3.9268
mp-1212416,HfCrP,0.0
mp-1212858,Dy5SbPt2,0.0
mp-1214574,Ba6Lu2Ga4O15,3.4823999999999993
mp-1214789,BSe2,1.771599999999999
mp-1214887,Al7Cu2Rh,0.0
mp-1215117,Ce3(Sn3Pd2)2,0.0
mp-1215782,ZnGa2(TeO3)4,3.5743
mp-1215836,Yb2AgPd,0.0
mp-1215882,Yb2FeSbO7,0.0
mp-1217077,Ti2Si6W,0.0
mp-1217476,TbSi2IrRh,0.0
mp-1217777,SrZnIn3,0.0
mp-1217876,Tb20In40Rh19,0.0
mp-1219047,SmYCo17,0.0
mp-1219682,RbNb3(PO5)3,0.0
mp-1219701,PuUC3,0.0
mp-1219776,Rb3Er7S12,1.9309999999999992
mp-1219880,Pr6Ge3S14,1.329699999999999
mp-12199,Hg3(PO4)2,1.3956
mp-1220380,Nd3NiSn7,0.0
mp-1220467,Nd2FeCo17Si8,0.0
mp-1221804,Mn3NiP2,0.0
mp-1222955,LaPrCr2O6,2.439599999999999
mp-1223181,La4SnSb2,0.0
mp-1223339,La2Ga5Cu3,0.0
mp-1223651,La20Os12C13,0.0
mp-1223710,K2(TaS2)3,0.0
mp-1224006,HoCuPbS3,1.6288
mp-1224680,Gd2SbO2,0.0
mp-1225806,Gd4Co3,0.0
mp-1225934,CsMnVF6,1.8592
mp-1226356,Dy20In40Rh19,0.0
mp-1226941,Ce4CoSi6Au,0.0
mp-1227203,Ca5As3ClO12,3.4619
mp-1227220,CaLa4Si3O13,4.498299999999999
mp-1227351,Ca2Ga7Ag,0.0
mp-1228646,Ba(GeAu)2,0.0
mp-1228815,AlRe,0.0
mp-1232352,Dy2CrFeO6,2.266899999999999
mp-1238219,HoSbO4,2.288699999999999
mp-1245445,Ca3Mn3N5,0.0
mp-12488,CsErCdTe3,1.5492
mp-12613,LaNiSn,0.0
mp-12642,Ba2TmNbO6,2.8577
mp-12668,Tb2SO2,3.1344
mp-12906,Sr3CrN3,0.0
mp-13212,GdCuGe,0.0
mp-13314,ScTlTe2,0.1338
mp-13464,Ca(FeSb3)4,0.0
mp-13567,CeS2,0.0
mp-13603,CdB4O7,3.9877000000000002
mp-13666,Ti(PS3)2,1.452
mp-1408,MgHg,0.0
mp-1484,Pr4Sb3,0.0
mp-14969,BaErCuS3,1.192899999999999
mp-15123,Th(AlC)4,0.0
mp-1514,UB2,0.0
mp-1515,ZrSi2,0.0
mp-15257,Tb2Se3,0.545199999999999
mp-15417,K2GaP2,1.2482
mp-15784,KGdS2,1.9941
mp-15789,LiDyS2,2.0907
mp-1586,NdSb,0.0
mp-16644,PrMgPt,0.0
mp-17137,Ba3ZnRu2O9,0.0
mp-17287,TaTe4Ir,0.0
mp-17761,CaGeO3,3.4974
mp-17927,Ba(DyTe2)2,0.7873000000000001
mp-17981,Eu3IrO7,0.0
mp-18127,Sr(Ni2Sn)2,0.0
mp-18189,LiTmSn,0.0
mp-18302,Mn2MoP12,0.144899999999999
mp-18527,CsMoPO6,2.8607
mp-18996,TlV3O8,2.1201
mp-1915,Fe2B,0.0
mp-19161,Ca2CoWO6,1.2916
mp-19249,YbNiO3,0.0
mp-19514,Sr2CrO4,1.968299999999999
mp-19922,LuNiGe,0.0
mp-19997,EuIn2Ni,0.0
mp-20054,TbGe2Pt,0.0
mp-20355,Ce2CoSi3,0.0
mp-20483,Pb,0.0
mp-20610,LuGeRh,0.0
mp-20677,Gd(CuSi)2,0.0
mp-2070,CoS2,0.0
mp-20784,Ta3PbS6,0.0
mp-20785,Nd(FeGe)2,0.0
mp-20803,USbAs,0.0
mp-21026,Li2InPt,0.0
mp-21077,LaNiGe2,0.0
mp-21351,Dy2In,0.0
mp-21608,Tm2(Ni7B2)3,0.0
mp-2359,NdPt5,0.0
mp-24287,CrH,0.0
mp-2583,TiRh,0.0
mp-2694,LaAl2,0.0
mp-27145,Ca5Bi3,0.0
mp-2747,TbPd3,0.0
mp-27797,Li4H4Rh,0.0
mp-2796,TmAg,0.0
mp-28321,Sc7CI12,0.0
mp-28435,KFeCl4,0.16510000000000002
mp-28488,CuPtF6,0.0519
mp-28761,Sr7Mn4O15,0.0
mp-29044,Cd4Sb2I3,1.1297
mp-29102,Hg3TeCl4,2.2498
mp-29173,V2Se3O11,2.1662
mp-29188,VHgO3,2.2382
mp-29620,Sr5Bi3,0.0
mp-29626,Na4Sn3S8,1.668899999999999
mp-30,Cu,0.0
mp-30003,AuSO4,1.6517
mp-30097,Bi2Te7Cl8,0.843599999999999
mp-30130,Bi4I2O5,2.2338
mp-30205,Cr2(Bi2O5)3,2.3566000000000003
mp-30223,La2Fe2I,0.0
mp-30229,Tb5C2Br9,0.764999999999999
mp-30771,Lu6Ni2Sn,0.0
mp-30818,Li2AlPt,0.0
mp-30836,TaPd3,0.0
mp-30878,TbTl,0.0
mp-30989,Sn(NO3)4,3.652
mp-31169,ScAlAg2,0.0
mp-31314,K2PSe3,1.9047
mp-31447,TbAgPb,0.0
mp-31484,K4GaAu8,0.0
mp-3172,Ag3AuSe2,0.3955
mp-3218,Er(SiPd)2,0.0
mp-3333,Eu(NiGe)2,0.0
mp-3374,Nd4Au2O9,1.9966
mp-3411,Tl(MoSe)3,0.38830000000000003
mp-3657,TiCo2Si,0.0
mp-36884,Mn2SnO4,0.5098
mp-38,Pr,0.0
mp-3805,Al(FeB)2,0.0
mp-4160,Tl3PSe4,1.4838
mp-4350,La2(SeO3)3,3.5148
mp-4416,Ho6FeSb2,0.0
mp-4815,Pr(SiRh)2,0.0
mp-4901,Y2MgCu2,0.0
mp-504617,Ti3Co5B2,0.0
mp-504806,K2Li14Pb3O14,1.923
mp-505217,Co2PHO5,2.5278
mp-510277,Ce3S2O3,0.0
mp-510560,CeF3,0.0
mp-510646,TlPPbS4,2.0807
mp-510706,Er4Si9Ir13,0.0
mp-5260,Ho(GeRu)2,0.0
mp-5288,Y(FeSi)2,0.0
mp-5399,Tb(FeSi)2,0.0
mp-541459,KSnPO5,3.4605
mp-542180,Th(TeI)2,1.095199999999999
mp-542777,CePt5,0.0
mp-543017,Dy12(MnC3)5,0.0
mp-5447,Sm3OsO7,0.0
mp-545436,Ba2YbBiO6,0.0
mp-551101,HoBi2IO4,1.416799999999999
mp-554337,Rb2IrF6,0.0
mp-555704,ReO2F3,3.3417
mp-556051,Rb2GeO3,3.0075
mp-556346,Pr(IO3)3,3.3438
mp-556962,Pr3CuGeS7,1.762799999999999
mp-557268,KLi4AlO4,3.9726
mp-558276,K2Er(NO3)5,3.4458
mp-558393,Rb2Nb3Cl7O5,2.3124000000000002
mp-558464,Yb(IO3)3,0.0
mp-5590,YMgGa,0.0
mp-559364,SrBi2(B2O5)2,3.626699999999999
mp-560076,Nd2W2O9,3.500599999999999
mp-560153,MnBiPO5,2.815
mp-560190,Mo8O23,0.9108
mp-560263,Pr4Se3(O5F3)2,3.9741
mp-560563,K3(PdO2)2,0.0
mp-561379,GaRe(Cl3O)2,1.9694
mp-562,Sb2Pt,0.0
mp-562239,V2P2PbO10,2.0502
mp-562826,CoSeO3,2.6311
mp-567580,PaC,0.0
mp-568088,Yb14MnSb11,0.0
mp-568371,Tm(SiRu)2,0.0
mp-569565,La3(CrN3)2,0.0
mp-569740,Yb2(Ni5B3)3,0.0
mp-569811,Yb11GaSb9,0.6382000000000001
mp-570045,Sm3CuSiSe7,1.530599999999999
mp-570423,Ba6Pr3I19,1.0197
mp-570807,Sr4In13Au9,0.0
mp-570822,Tb3AlC,0.0044999999999990005
mp-571184,CuMo3Br7,1.6912
mp-571647,La2PI2,0.0
mp-574,Ta2Co,0.0
mp-574379,CsHg2,0.0
mp-579637,K2In2Sb3,0.8028000000000001
mp-580192,HoGe2Pt,0.0
mp-6055,Sm2SiTeO4,2.398899999999999
mp-607738,CeZnRh,0.0
mp-619661,Pb3(IO)2,2.2333
mp-636334,SnRh2,0.0
mp-640315,Y(Zn10Ru)2,0.0
mp-640825,Sr5(InBi3)2,0.0
mp-641576,Gd3CuSiSe7,0.8452000000000001
mp-644828,AuXe2F17,1.3692
mp-647029,Gd3P4Pd7,0.0
mp-647102,KNOF2,3.2131
mp-6492,Ba2YSbO6,3.5454
mp-649479,Ca5(InSb3)2,0.16259999999999902
mp-653697,Ta(CoTe)2,0.0
mp-654199,Ta8NiSe8,0.0
mp-669359,KNd3Te8,0.446899999999999
mp-669370,Ta5AuS,0.0
mp-6702,Na7In4P9O32,3.7157999999999998
mp-6708,RbNb2PS10,1.5894
mp-672688,YbSeClO3,0.0
mp-680058,InTeI7,1.7338
mp-6812,KBaPO4,4.9556000000000004
mp-707060,NbCl4F,2.512699999999999
mp-707483,TiP2H4O9,2.9733
mp-721239,Li10Ge(PSe6)2,1.3131
mp-752629,K(CoO2)2,0.19409999999999902
mp-753257,LiCuF4,0.8279999999999991
mp-753574,MnF4,0.197
mp-753668,Ba2GdSbO6,3.4808
mp-754031,YBrO,3.8266
mp-754225,YbTiO3,2.3002000000000002
mp-757280,Ba2As6O11,3.1663
mp-759747,Sr4(NiO3)3,1.354899999999999
mp-761870,H7C3N6Cl,3.9391
mp-763,MgB2,0.0
mp-7656,Na5GaO4,2.2018
mp-768483,Lu3Sb5O12,3.1062
mp-768613,Zr(MnSn)6,0.0
mp-771132,Ba3Ga4O9,2.8953
mp-778008,Mn7(P2O7)4,0.0
mp-7930,Zr3(Cu2Si)2,0.0
mp-7951,ThSe2,0.646799999999999
mp-810,NiSb,0.0
mp-8466,SmNiGe3,0.0
mp-8609,Li6UO6,2.2001
mp-861627,Ti2AlMo,0.0
mp-861651,Li2PdPb,0.0
mp-861915,LiDy2Ir,0.0
mp-8620,La2Si5Rh3,0.0
mp-862256,Cu2PdAu,0.0
mp-862657,LiCuPd2,0.0
mp-862727,Pm2ZnPb,0.0
mp-862744,Pm2ZnIr,0.0
mp-8631,LuAlB4,0.0
mp-863665,Pm2CuIr,0.0
mp-863740,Pm2IrRu,0.0
mp-864684,Hf2MoIr,0.0
mp-864916,Hf2TcRh,0.0
mp-864955,Mn2CrCo,0.0
mp-865079,TiZnPd2,0.0
mp-865163,HfBeRh2,0.0
mp-865367,Tm2NiRu,0.0
mp-865467,Pm2SnAu,0.0
mp-865484,V2CrRe,0.0
mp-865512,YMgCd2,0.0
mp-865601,Lu2RuRh,0.0
mp-866088,Hf2CoTc,0.0
mp-866196,Li2PrIn,0.0
mp-866281,Er2PdRu,0.0
mp-866687,Gd4Ga16Co3,0.0
mp-866713,ReTeSCl4,2.3311
mp-867118,LaSnAu2,0.0
mp-867754,Ta4Ni2C,0.0
mp-867780,Al3Cr,0.0
mp-8680,Ce(BIr)2,0.0
mp-9113,CsBeAsO4,3.8815
mp-9225,ScSiPt,0.0
mp-9319,Ba2PrPtO6,0.0
mp-9435,La3ZrSb5,0.0
mp-972364,Yb,0.0
mp-972660,SmHoRh2,0.0
mp-975652,PrTe2,0.0
mp-9759,BaPr2PdO5,2.2925
mp-975924,Ge3Ir2Se3,0.5962000000000001
mp-976589,NaIn3,0.0
mp-977415,HoCdAu2,0.0
mp-977418,LiMgAu2,0.0
mp-977436,ZrAlRu2,0.0
mp-978536,SmHoHg2,0.0
mp-980645,YErRh2,0.0
mp-980811,TmMn12,0.0
mp-983444,LiPmZn2,0.0
mp-9882,Y2Si5Rh3,0.0
mp-9888,Ir3Se8,0.0
mp-989582,Ca6Pb2SeN,0.0
mvc-2207,Ba2Mn2CuF14,0.9943000000000001
mp-1007663,HoTlTe2,0.8376999999999991
mp-1007692,HfPd,0.0
mp-1008561,TmTlTe2,0.8370999999999991
mp-10130,U2(Ni7B2)3,0.0
mp-1017577,Ho3AlN,0.0
mp-1018747,LaSbTe,0.0
mp-10209,Y3Al3NiGe2,0.0
mp-1024073,K2Sn3O7,1.577999999999999
mp-1024964,PrSbPd,0.0
mp-1025237,Ba2RuO4,0.0
mp-1025423,SmGa2Ni,0.0
mp-10308,Ho2Ge2Rh,0.0
mp-10314,Yb(ZnAs)2,0.428199999999999
mp-10531,Lu2AlSi2,0.0
mp-1063174,GdAu2,0.0
mp-1068906,CeSi3Ir,0.0
mp-1069288,MnGa4,0.0
mp-1069443,CeAl3Cu,0.0
mp-1069712,Ba(CdGe)2,0.0
mp-1070253,Ba(CoGe)2,0.0
mp-1070510,Y2BiO2,0.0
mp-1072199,PuB2Ir3,0.0
mp-1077097,YbZnPb,0.0
mp-1077290,ErCu4Au,0.0
mp-1077925,Na5Sn2,0.0
mp-1077930,Ta(MnB2)2,0.0
mp-1078544,Sc2InCu2,0.0
mp-1078585,GdAl,0.0
mp-1078833,Tb(AlAu)2,0.0
mp-1078849,Ca(GaP)2,0.22460000000000002
mp-1078963,V3GaN,0.0
mp-1079111,EuTiO3,0.0
mp-1079211,Ce(PIr)2,0.0
mp-1079601,ThGaNi,0.0
mp-1079699,PrAlNi,0.0
mp-1080558,Nd(GeIr)2,0.0
mp-1095130,DySiAg,0.0
mp-1095380,LiEuBi,0.0
mp-1095527,GdGeRh,0.0
mp-1096784,Ni(AsO2)2,2.7718
mp-1096946,Cs2VHO4,3.5066
mp-10998,Yb2Ge2Ir,0.0
mp-1101079,TmCoGe,0.0
mp-1101908,Nd3Ni2Sn7,0.0
mp-1101909,VCl5,1.0463
mp-1102104,Ho2Pt,0.0
mp-1102174,In2AsPt8,0.0
mp-1102524,In2Pd8Se,0.0
mp-1102986,CeSb2,0.0
mp-1103289,LuNiP,0.0
mp-1103546,Mn2ZnSe4,0.0
mp-1104279,Tb3GaCo3,0.0
mp-1104311,Sm3Pd4,0.0
mp-1104603,Ce2Br5,0.0022
mp-1105932,Li2MgSi,0.21799999999999903
mp-1105990,Ho5Ge3C,0.0
mp-1106065,B3Rh7,0.0
mp-1106289,Ga7Pd3,0.0
mp-1112134,Cs2RbAsBr6,3.0927
mp-1112657,Cs2NaGdCl6,3.0097
mp-11143,BaCu9Si4,0.0
mp-11144,SrCu9Ge4,0.0
mp-11481,MoIr,0.0
mp-11488,LaTl,0.0
mp-11536,NpRh3,0.0
mp-1178946,TmWC2,0.0
mp-1181965,CsVSO6,2.143
mp-1183041,ZrZnCo2,0.0
mp-1183998,Ga3Tc,0.0
mp-1184170,Dy2InAg,0.0
mp-1184502,In,0.0
mp-1184843,HoPaTc2,0.0
mp-1184891,HoLuCu2,0.0
mp-1184956,Li2TlHg,0.0
mp-1185055,Hf2InNi2,0.0
mp-1185628,Mg149Sb,0.26679999999999904
mp-1185970,Mn3Co,0.0
mp-1186335,NdYMg2,0.0
mp-1186406,PaTc2Sn,0.0
mp-1186594,PmHoZn2,0.0
mp-1186628,PmPrIr2,0.0
mp-1187852,U2Co12P7,0.0
mp-1187870,YTmTl2,0.0
mp-1188099,U2SnPt2,0.0
mp-1188135,Dy2ReC2,0.0
mp-1188263,Eu3(InP2)2,0.0
mp-1188408,Zr5Sn3B,0.0
mp-1188451,Nd(P3Os)4,0.0
mp-1188656,Nd3Os,0.0
mp-1189966,Dy4Ga12Ni,0.0
mp-1190166,Ba2Mg(GeIr)4,0.0
mp-1190339,Na3Ca3AlSb4,0.4585
mp-1190471,Ba(Sn2Ru)3,0.0
mp-11905,LiNd2IrO6,0.0
mp-1190773,Y2Si3Rh,0.0
mp-1191434,ErFeB4,0.0
mp-1191719,Pr3(GaNi3)2,0.0
mp-1192550,RbBaPS4,2.606
mp-1192618,Nb4Fe4Si7,0.0
mp-1192696,Sc4Co4Ge7,0.0
mp-1193064,CsDySiS4,2.9424
mp-1193093,LaNi5Sn,0.0
mp-1193201,Gd3Se3N,1.122599999999999
mp-1193368,Nb4CoSe8,0.0
mp-1193428,PrNi5Sn,0.0
mp-1193652,Re(TeCl2)2,2.1909
mp-1194086,CeCo9Ge4,0.0
mp-1194158,ErMoBrO4,2.0984
mp-1194714,SrTh(PS4)2,2.254699999999999
mp-1194799,CeTl(PS3)2,0.28500000000000003
mp-1195050,SnIr2Se5,0.5998999999999991
mp-1195855,Y2Re3Si5,0.0
mp-1196015,Cs2PAuS4,2.153
mp-1196838,Dy2Re3Si5,0.0
mp-1198288,Sn2Bi2O7,2.667
mp-1198929,Tb2ReB6,0.0
mp-1199,HoMg,0.0
mp-1199265,Nb2Pb2Se4O15,2.7
mp-1199772,Sb2XeClF11,2.1165
mp-1199794,Tm10In20Ni9,0.0
mp-1200193,Bi2Mo2Se2O13,2.849
mp-1200788,Cu3P8(Se2Br)3,1.364599999999999
mp-1201078,Na2TeW2O9,2.6950000000000003
mp-1201710,WS2O9,3.8238000000000003
mp-1202016,Tm6Al43W4,0.019700000000000002
mp-1202980,Zr2Te4Cl2O11,3.1681
mp-1203297,Sc5IrCl9,0.21809999999999902
mp-1203300,Y5Zr3(Ni4As3)4,0.0
mp-1203443,HfFeGe2,0.0
mp-1203584,Ba2GaBiSe5,1.771599999999999
mp-1203641,V2Pb4(Se2O7)3,2.4239
mp-1204042,Sm5P12Ru19,0.0
mp-1204383,La5P12Ir19,0.0
mp-1205242,La(NO3)3,3.1345
mp-1205449,K3TiCl6,0.061699999999999006
mp-1205527,YSiOs2C,0.0
mp-1205543,TbFe2SiC,0.0
mp-1205693,Ba2DyUO6,0.881899999999999
mp-1205828,YAgGe,0.0
mp-1205919,TmMgPd,0.0
mp-1206451,Nd2Co2I,0.0
mp-1206691,TbCu4Pd,0.0
mp-1206739,ErFe2SiC,0.0
mp-1206779,ThSiIr,0.0
mp-1207163,Lu4Ni2C5,0.0
mp-1207486,ZrBr4,3.7818
mp-1207541,YbMgGa4,0.0
mp-1207579,Yb5As3,0.0
mp-1207600,YCoB4,0.0
mp-1207644,Yb2ReC2,0.0
mp-1207798,Y3BCl3,0.0
mp-1207996,Tm2(Al3Pd)3,0.0
mp-1208184,Tm6Nb4Al43,0.0
mp-1208224,Th2Sc(B2C)3,0.0
mp-1208576,TaCoAs,0.0
mp-1208766,Sr2VBrO4,3.337
mp-1209376,RbAlCuF6,0.0
mp-1209395,Pr3BBr3,0.0
mp-1209461,Rb2W3SeO12,3.0784
mp-1209686,Pr4CdPt,0.0
mp-1209773,Rb3La3(BO3)4,3.8383000000000003
mp-1210076,Nd4CdNi,0.0378
mp-1210167,Nb6HSI9,0.0
mp-1210787,Nd23Cd4Ir7,0.0
mp-1211387,LaNiAs,0.0
mp-1211695,K3ErF6,6.499
mp-1211873,K3Ti2P5S18,1.1872999999999991
mp-1211976,La23Mg4Ir7,0.0
mp-1212254,Li3Yb(NO3)6,0.042
mp-1212265,K4Zr3Te17,0.8644000000000001
mp-1212891,Eu3Sn5,0.0
mp-1213102,Eu2Nb5O9,0.0
mp-1213459,FeSb(P2O7)2,2.668199999999999
mp-1213536,CsMo3Cl7,2.587399999999999
mp-1213600,CsLa2Br7,3.4023
mp-1213830,Ce3W(ClO2)3,0.0
mp-1213956,CaUI6,0.311899999999999
mp-1213990,Ce11(Ni2Ge3)2,0.0
mp-1214109,Ca2YbRuO6,0.0
mp-1214381,BaPrCuTe3,0.5636999999999991
mp-1214573,Ba2PrBiO6,1.9422000000000001
mp-1215370,Zr4CuS8,0.0
mp-1216092,YMn2SiGe,0.0
mp-1216153,Y2CrFeO6,0.445999999999999
mp-1216361,VP2PbO8,1.794099999999999
mp-1216384,Y9Al5S21,2.380499999999999
mp-1216745,Tm(AlCu)6,0.0
mp-1217035,Tl2Mo2P2O11,2.296699999999999
mp-1217180,Ti2Te3,0.0
mp-1217279,Th2Si3Ir,0.0
mp-1217437,TePtPb,0.0
mp-1217589,TbCuNi4,0.0
mp-1217955,Ta11(Co52B15)2,0.0
mp-1218128,SrNdGa3O7,3.2338
mp-1218873,Sm9Al5S21,2.3806
mp-1219392,Sc3Nb3(B2Ru5)2,0.0
mp-1219509,ReOs,0.0
mp-1219729,PrSmB12,0.0
mp-1219797,Ni6SnTe2,0.0
mp-1219846,Pr2Ni3P4,0.0
mp-1220796,Na5SrNbAs4,1.1639
mp-1221536,Mn2SnPd3,0.0
mp-1221677,MnH6(NCl)2,1.5599999999999992
mp-1222607,Li2SnPt,0.0
mp-1222671,Li2CdIn,0.0
mp-1222823,LaGaSi,0.0
mp-1222905,LaCePd6,0.0
mp-1223259,La2CoNiO6,1.021499999999999
mp-1223956,Ho2TeS2,1.793199999999999
mp-1224015,La3InGe,0.0
mp-1224247,HfZrN2,0.0
mp-1224334,HfNbC2,0.0
mp-1224779,GdAlNi4,0.0
mp-1226070,CoCuS4,0.0
mp-1226111,Co7NiP4,0.0
mp-1226265,Cr4CoCuS8,0.0
mp-1226278,CrSb3Pb4O13,1.027
mp-1226501,CeScPd6,0.0
mp-1226605,CeCuSi2Ni,0.0
mp-1226843,Ce2CdSb4,0.0
mp-1227232,Ca6Al7ClO16,3.7972
mp-1227279,Be4AlNi,0.0
mp-1227357,Be3Cu,0.0
mp-1227524,BaTi(IO3)6,2.742
mp-1227650,BaSr4,0.0
mp-1228060,Ba3SmB24,0.0
mp-1229032,AgPt4,0.0
mp-1229049,AsBrOF8,3.1833
mp-12387,YbAsO4,0.0
mp-12448,LiSm2OsO6,0.39639999999999903
mp-12454,ErCuS2,1.6389
mp-12527,Ti2Te2P,0.0
mp-1269,SmS,0.0
mp-1276278,Sr2CoO4,0.7733999999999991
mp-12784,YbAlAu,0.0
mp-1278696,TiFeO3,2.2281
mp-12791,SmCuSn,0.0
mp-1304711,Ca2CoIrO6,0.0
mp-1304797,Sr3InNiO6,0.6869999999999991
mp-13416,Sc2InNi2,0.0
mp-1370,CsSi,1.563199999999999
mp-13934,Ba2TmReO6,0.0
mp-14316,KPr(SeO4)2,3.476
mp-14356,Dy3MnB7,0.0
mp-14704,Li6Y(BO3)3,4.7399000000000004
mp-15250,NaCd(PO3)3,4.706399999999999
mp-1567268,CaMn(GeO3)2,1.5785
mp-1569454,MgCo(GeO3)2,1.6486
mp-16035,Gd2TeO2,1.1192
mp-16137,K4CaU3O12,2.1364
mp-16381,NaMn6P7O24,3.497499999999999
mp-16475,Sr11Sb10,0.0
mp-16620,LuAl7Au3,0.0
mp-16847,K3Na2SnP3,0.9684
mp-1702,LaRh2,0.0
mp-1738,SmAs,0.0
mp-17823,Tl3B3S10,1.9583
mp-18014,Th7Fe3,0.0
mp-18101,K2Cd3S4,1.787599999999999
mp-18177,Ba3NbAs3O,1.042
mp-18360,Ca5P12Ir19,0.0
mp-18677,PrSc3(BO3)4,4.4411000000000005
mp-18812,NdVO4,3.0239
mp-19176,La2NiRuO6,0.0
mp-19188,Ba3Mn2O8,1.7221000000000002
mp-19790,Rh(OF3)2,0.0
mp-19802,TbCoO3,1.422199999999999
mp-19985,TlIn(PSe3)2,1.4562
mp-20058,GdAlPd,0.0
mp-20085,LaTiGe3,0.0
mp-20174,Ni3Sn4,0.0
mp-20516,InPt3,0.0
mp-2062,LaSi2,0.0
mp-2116,ZrMn2,0.0
mp-21300,Yb5Ge4,0.0
mp-21662,TiFeSi2,0.0
mp-2206,LuCo2,0.0
mp-22434,HfFeP,0.0
mp-22522,ZrCuSi,0.0
mp-22542,Tm3PbC,0.0
mp-22551,UP2(PbO5)2,1.8396999999999992
mp-22555,RhS2,0.0
mp-22942,BaBiO3,0.0
mp-22998,CrSBr,0.0
mp-23253,RbBi2,0.0
mp-23493,Ce(IO3)4,1.5706
mp-23552,Er(IO3)3,3.483
mp-23831,NdHSO5,5.6225000000000005
mp-24153,LaH2,0.0
mp-2432,CaMg2,0.0
mp-2558,SmMg,0.0
mp-26744,Mo4P7O24,0.8672000000000001
mp-2720,NdPt2,0.0
mp-27443,Ba2MnO3,1.4787
mp-27469,Th2BiN2,0.0
mp-27506,K3W2Cl9,1.3417
mp-27513,Sc7Cl10,0.0
mp-27762,UBrN,0.0
mp-2836,Dy5Si3,0.0
mp-28597,Na5InTe4,1.216
mp-28651,Cs2IrCl6,0.0
mp-28952,PdSO4,1.0787
mp-28995,Cu4SiP8,1.371399999999999
mp-29039,P3RuO9,0.0
mp-29070,La5C2Br9,1.7550999999999992
mp-29333,Rb2PuCl5,0.0971
mp-29345,LiGaI3,2.2483
mp-29415,Cd3PCl3,1.8315000000000001
mp-29878,Re2PCl13,0.8085
mp-29975,K3BS3,2.7673
mp-30026,Sr3Te4O11,3.202099999999999
mp-30175,Ca(AlZn)2,0.0
mp-30211,La5Sn3I,0.0
mp-30213,Sb2BrF15,2.970399999999999
mp-30234,Cs2WCl6,0.0
mp-30295,W6CCl18,1.1547
mp-30412,Pb3Au,0.0
mp-30766,Li5Sn2,0.0
mp-30884,YZn3,0.0
mp-31033,HfF4,5.455999999999999
mp-31139,TbNi,0.0
mp-31266,YPS4,2.1418
mp-31289,Bi5NO10,2.6498
mp-31512,Rb7(FeO4)2,0.0
mp-3223,ThB2Ru3,0.0
mp-33,Ru,0.0
mp-33581,Ba9Nb10O30,0.0
mp-3412,Eu(CuSi)2,0.0
mp-3526,ErInPt,0.0
mp-3594,Gd3GaO6,2.9703
mp-37312,Na(La2Se3)4,0.0
mp-378,ErSi,0.0
mp-4276,NaSi2Pd3,0.0
mp-4437,NdTe2Se,0.0
mp-504603,Cs2TlFeF6,2.9884
mp-504778,NaMoF6,0.0
mp-504900,Eu(SbPd)2,0.0
mp-505273,NiMoO4,0.0
mp-505510,NiAs2,0.0
mp-5326,Yb(CoSi)2,0.0
mp-540621,SrGa2(GeO4)2,3.088199999999999
mp-540760,FePCl8,1.4434
mp-541000,K3As11,1.4708
mp-542390,Ho(SiNi5)2,0.0
mp-542748,Ho3Ge5,0.0
mp-548,NbCr2,0.0
mp-554574,Sb4Au(Xe2F11)2,0.377999999999999
mp-554783,KUN3O11,2.3277
mp-555015,SiAg6SO8,0.0
mp-555221,Sr9TmV7O28,3.578099999999999
mp-555444,CeZr6(PO4)9,0.3357
mp-556583,CsSb2F7,4.3142
mp-556676,Na3Al2(AsO4)3,3.258
mp-556855,Ba3Bi(ClO)3,3.96
mp-557656,RbNaSi2O5,4.4475999999999996
mp-557918,KGaAs2O7,2.7157
mp-558168,Ba(AuF6)2,1.574199999999999
mp-558535,La10Se14O,1.554
mp-559246,BaCrF6,1.646599999999999
mp-559356,Tl3AsS3,1.5714000000000001
mp-560666,K4Nb2Se11O,1.2873
mp-560924,K2NaFeO3,0.0
mp-561474,K3LiSiO4,3.6727
mp-567513,Ho(SiIr)2,0.0
mp-567950,U11Ni16,0.0
mp-568823,YbAu3,0.0
mp-569451,Sb2Pd5,0.0
mp-569478,Ho4CdRh,0.0
mp-569674,La(CoAs)2,0.0
mp-569713,La(AlZn)2,0.0
mp-570070,Yb4Ge6Rh7,0.0
mp-570149,Ca14MnBi11,0.0
mp-570166,Zr6Si7Ni16,0.0
mp-570175,Ce5Si3,0.0
mp-570469,Pr5Tl3,0.0
mp-571382,Nd(CoAs)2,0.0
mp-572149,Cs2Al(NO3)5,2.9081
mp-572797,Cs2IrF6,0.077699999999999
mp-573812,Cs3As11,1.3884
mp-579518,Dy5Sn11,0.0
mp-580327,Gd3(AlNi3)2,0.0
mp-585949,CaCu,0.0
mp-607,CeRu2,0.0
mp-621667,Eu3Ag2,0.0
mp-6258,CeCr2Si2C,0.0
mp-628908,KICl2,2.3548999999999998
mp-631,TiC,0.0
mp-643092,U(GaFe)6,0.0
mp-645166,Tb(GaFe)6,0.0
mp-645182,Sm2NiSn4,0.0
mp-669353,Cs2TeO4,2.846899999999999
mp-6739,Ba2CaOsO6,0.0
mp-674149,Ru4Pb4O13,0.0
mp-676109,Li3InCl6,3.3747
mp-685928,Rb5Tc3S7,1.1198
mp-698212,Ce3Zn22,0.0
mp-7064,Er2Si2O7,4.798599999999999
mp-7152,CsZrCuSe3,0.2984
mp-738,Sb2Au,0.0
mp-7496,ThZn2,0.0
mp-754534,Li2CeO3,2.3502
mp-754621,Sm2Ge2O7,3.8762
mp-755135,La6WO12,3.462699999999999
mp-755471,LuCrO3,2.741199999999999
mp-756218,LiVCrO4,1.152899999999999
mp-756277,Er3TaO7,3.6197
mp-759849,Li2Ti6Zn3O16,2.8232
mp-760024,NaTi5O10,0.0
mp-766093,Ti4(Ni5O8)3,1.2578
mp-766367,Dy5(ReO6)2,0.0
mp-7714,Li4UO5,2.1041
mp-773060,Ba6Ta9Ti7O42,0.0
mp-7767,RbAgF3,0.0
mp-782047,Ca9La5Cl33,3.6799
mp-795,LiSi,0.0
mp-797,DyPd3,0.0
mp-8248,Rb2TeO3,3.6022
mp-8306,Ba3FeN3,0.0
mp-861654,HoInPd2,0.0
mp-861727,PuBr2,0.0
mp-861955,LiPm2Ge,0.0
mp-861956,LiPm2Ir,0.0
mp-861986,Pr5Al2Ru3,0.0
mp-861994,Ho2TlCd,0.0
mp-862377,LiBe2Ir,0.0
mp-862658,LiCu3,0.0
mp-862729,Sr(DySe2)2,1.396
mp-862854,PaPd3,0.0
mp-862858,PaPt3,0.0