material_id,pretty_formula,band_gap
mp-646612,NaCe(GaSe2)4,0.08129999999999901
mp-656152,Gd2Cl3,0.12089999999999901
mp-6592,K2Pt(NO2)4,2.1310000000000002
mp-6663,NaLiGe4O9,2.6592000000000002
mp-669556,Pu5Pt3,0.0
mp-669566,ZnAu3,0.0
mp-669913,Sr2Pb3,0.0
mp-672322,Eu3(B3Rh4)2,0.0
mp-675370,LiMnO2,0.889899999999999
mp-675872,Li2UBr6,0.149599999999999
mp-680377,Rb12Sn8GeO4,1.1014
mp-684055,Tl7Bi3I16,2.265399999999999
mp-686044,Bi12Rh12O41,0.0
mp-686487,Th2(Mo3S4)5,0.0
mp-704299,FePO4,2.7404
mp-704327,Mn7(PbO5)3,0.0
mp-7248,U(Al2Cu)4,0.0
mp-735023,H4CSN2,3.3762
mp-743860,VZn2HO5,2.7972
mp-752423,Na2TiO3,3.2321
mp-752526,Lu2TeO6,3.100399999999999
mp-752989,Ti8O13,0.15479999999999902
mp-753142,Li2Co(SiO3)2,2.973
mp-753395,FePO4,1.3926
mp-753923,Cs3HoO3,2.1913
mp-754054,Li2VCrO4,0.930999999999999
mp-755223,Li3Ni4SnO8,0.0
mp-755530,Na3CuO2,1.665
mp-756474,Rb3YO3,2.203
mp-756639,Li2NbOF5,3.6883
mp-756646,SrLu2O4,3.762799999999999
mp-756715,Gd3InO6,2.8691
mp-756870,Li3Mn(NiO2)4,0.0
mp-757010,Li3Fe(NiO2)4,0.0
mp-757152,V2Bi4O11,2.325999999999999
mp-757832,KMn6O12,0.0
mp-758214,VF5,3.1969
mp-758372,Li2CoSiO4,2.8011
mp-759350,Li2U(WO5)2,1.567699999999999
mp-759786,Na2Ti7O15,2.8817
mp-760075,Ti19O30,0.0
mp-760947,V4O7F5,0.9117999999999991
mp-761013,Li8MnNi7O16,0.088699999999999
mp-763482,VPO5,2.2993
mp-764959,VF5,2.817
mp-765538,Li3Co2NiO6,0.0
mp-766232,MgV3O8,1.9029
mp-766385,Li5V12O32,0.0
mp-766954,LiVF5,1.8981999999999992
mp-767436,P3W2O13,2.0162
mp-768267,HoInO3,1.9695
mp-768504,Ni2(SO4)3,0.0
mp-769595,Li4VCr3O8,1.6105
mp-769605,Li4VCr3O8,1.5101
mp-769609,Li4VCr3O8,1.5583
mp-770696,Mn7(PO4)6,0.0
mp-771883,Sr3LaCl9,3.7154
mp-771966,Sm2WO6,3.576499999999999
mp-773078,Li7Ca8Nb12O40,0.0
mp-7753,MgPd3,0.0
mp-777414,Na7Li3V10O30,3.1319
mp-778889,Li24Ti11CrO36,1.6542
mp-779775,Li24Ti11CrO36,1.334499999999999
mp-781880,Ba9La5Cl33,3.4450000000000003
mp-809,ThCo5,0.0
mp-850287,Na6(NiO2)7,0.33320000000000005
mp-862672,LiY2Rh,0.0
mp-862724,Rb2Pu2O5,0.0
mp-863367,KBiO3,0.49059999999999904
mp-863389,Nb16Tl16O53,0.0
mp-864761,Ta2MnOs,0.0
mp-866201,Ti3Bi,0.0
mp-867886,Mn6P4H2O17,2.8920999999999992
mp-9186,CdSeO3,3.1181
mp-971738,ZnCuNi2,0.0
mp-971769,Tm,0.0
mp-971779,ZnRh3,0.0
mp-971979,Tm2ZnAg,0.0
mp-972244,Tm2ZnGa,0.0
mp-972454,Sm2Mg,0.0
mp-972539,Sm3Er,0.0
mp-973364,Mg,0.0
mp-973538,Lu2AlZn,0.0
mp-973734,Lu2InHg,0.0
mp-974066,Nd3Sm,0.0
mp-975129,Rb,0.0
mp-975797,PrSm3,0.0
mp-976032,PrHoZn2,0.0
mp-976148,K2RbSb,0.6879000000000001
mp-976414,Li3Zn,0.0
mp-976600,LiHf2Tc,0.0
mp-976843,Li2Mg,0.0
mp-977244,NaTi5Se8,0.0
mp-978911,TbYHg2,0.0
mp-979968,Yb2CdHg,0.0
mp-984612,Be3Ru,0.0
mp-984721,BeGaCo2,0.0
mp-984791,CaTmCd2,0.0
mp-989572,Cs2NaCaF6,0.0
mp-989636,BaWN3,1.0831
mp-99,Er,0.0
mp-997109,PbAuO2,0.4091
mp-999198,BMo,0.0
mvc-14941,MoO3,1.844399999999999
mvc-3470,YAgO3,0.028800000000000003
mp-1005752,Sm3In,0.0
mp-1018096,Ba2NF,1.1299000000000001
mp-1018179,AlAu2,0.0
mp-1018708,GdTlZn,0.0
mp-1018753,LaTlCd,0.0
mp-1018942,PrTlCd,0.0
mp-1020030,LiAl(GeO3)2,3.380599999999999
mp-1025067,ReGe2,0.0
mp-1026980,Mo2Se3S,0.549
mp-1027483,Mo2Se3S,0.476199999999999
mp-1036994,Mg30FeNiO32,3.4092000000000002
mp-1037367,Mg30CuNiO32,0.0
mp-1072982,GdGe2,0.0
mp-1078,CaCd2,0.0
mp-1078239,WBr4,0.21120000000000003
mp-1078387,FeCu3S4,0.0
mp-1078389,MoN,0.0
mp-1079480,Tb3Ni2,0.0
mp-1079897,SmAl4,0.0
mp-1079971,Sr2ZnMoO6,2.5027
mp-1080251,CeSe2,0.8717
mp-1080531,Tb(GeIr)2,0.0
mp-1084809,PrCdCu,0.0
mp-1092225,CeLuS3,0.0
mp-1094418,YMg2,0.0
mp-1094586,Li2Mg,0.0
mp-1094587,LiMg2,0.0
mp-1095024,Ti4H5,0.0
mp-1095397,SnS2,1.3437000000000001
mp-1095593,Ho2In8Co,0.0
mp-1100785,SrEuIn2,0.0
mp-1101427,Sr7Nb34O52,0.0
mp-1102443,CoSbS,0.708299999999999
mp-1103872,HoGa6,0.0
mp-1104487,Dy3Ga8Rh3,0.0
mp-1104975,Lu(FeSn)6,0.0
mp-1105792,Tb5Ge3C,0.0
mp-1105850,Y2SnAu2,0.0
mp-1105962,La5Bi3,0.0
mp-1112516,Cs2RbGdCl6,3.1649
mp-1112682,Cs2LiBiBr6,2.9097
mp-1113799,Rb2CeAgBr6,0.281699999999999
mp-1114367,Rb2NaPdF6,0.0
mp-1114604,Rb2TlAsBr6,1.1354
mp-11358,TaCo3,0.0
mp-1147726,Li4Zn(PS4)2,2.398499999999999
mp-1147733,Li4Zn(PS4)2,2.6014
mp-1147734,Li4Zn(PS4)2,2.7447
mp-1153970,Zn4InGaO7,0.9546000000000001
mp-1177925,Li2Mn2(PO4)3,0.0
mp-1178210,FeOF,1.283
mp-1179454,SiO2,5.3363
mp-1180816,KIO3,2.8131
mp-1183101,AcLaMg2,0.0
mp-1183588,CaYbHg2,0.0
mp-1183768,CeNdHg2,0.0
mp-1183820,DyHoHg2,0.0
mp-1184083,Er2ZnAg,0.0
mp-1184174,Dy3Lu,0.0
mp-1184627,Ho2CdHg,0.0
mp-1184837,HoMg2Sc,0.0
mp-1185205,Li3Hg,0.0
mp-1185337,LiHg3,0.0
mp-1185377,LiMg2Ni,0.0
mp-1185435,LiYbAu2,0.0
mp-1185441,LiSm2Ga,0.0
mp-1185607,LaEuHg2,0.0
mp-1185624,MgZrNi2,0.0
mp-1185662,Mg2CdAg,0.0
mp-1185705,MgNi2,0.0
mp-1185843,MgAlNi2,0.0
mp-1186125,NaCd2Pd,0.0
mp-1186188,NaTlHg2,0.0
mp-1186243,PmNd3,0.0
mp-1186381,Pa3Al,0.0
mp-1186555,PmDyAl2,0.0
mp-1186564,Pm3Gd,0.0
mp-1186665,PmTmCu2,0.0
mp-1186727,Pr3Sm,0.0
mp-1187110,Sr3Ca,0.0
mp-1187271,Tb2PdRh,0.0
mp-1187333,TbErHg2,0.0
mp-1187431,Ti2CuIr,0.0
mp-1187598,Tm2MgCd,0.0
mp-1187608,Tm2CuRh,0.0
mp-1187618,YbNdPd2,0.0
mp-1187730,Y2ZnRh,0.0
mp-1187812,Zn,0.0
mp-1187834,Tm3In,0.0
mp-1187888,YSeF,2.433
mp-1188018,Zr3Al,0.0
mp-1188289,Cs3Re2Cl10O,0.0
mp-1189729,Ba2SmGaTe5,1.1489999999999991
mp-1189860,Ba2DyInTe5,0.7071000000000001
mp-1191072,BaGa4Se7,1.4955999999999992
mp-1191238,CsSm2Cu3Se5,1.461
mp-1195570,Th(SeO3)2,4.018499999999999
mp-1196555,K6Tl17,0.025799999999999
mp-1196784,Zn3(AsO3)2,3.4989
mp-1196831,S,2.3187
mp-1197090,Tb2Ni7,0.0
mp-1197189,GdH2I3O10,3.1714
mp-1197526,CsV(PO3)4,0.014
mp-1197716,BaCu(SiO3)2,1.181299999999999
mp-1198229,Ho15C19,0.0
mp-1198729,Li22Sn5,0.0