material_id,pretty_formula,band_gap
mp-1223635,KMn8O16,0.0
mp-1223802,Hf2Al3Zn,0.0
mp-1224056,Ho3Sc2S7,0.0
mp-1224384,Hf4CN3,0.0
mp-1225044,Er2C,0.0
mp-1225941,CsAlCuF6,0.0
mp-1226890,Ce4H11,0.0
mp-1228608,Ba6Pr2Fe4O15,2.3421
mp-1228643,Ba3In2MoO9,1.8534000000000002
mp-1228961,AlCuSnS4,0.761599999999999
mp-1229124,Ag3AsO4,0.0
mp-1229249,Al79(Fe13Si9)2,0.0
mp-12322,RbGd2CuS4,1.0067
mp-1232423,Zr2CuTc,0.0
mp-1245450,Ca8(MnN3)3,0.0
mp-12734,NdAl3Pd2,0.0
mp-1295957,BaCoO3,1.1424
mp-1310,TbRh2,0.0
mp-132,Ca,0.0
mp-13283,Sm(ErS2)3,1.0587
mp-13352,RbUCuS3,0.0
mp-13473,Sm(MnSi)2,0.0
mp-13504,CeAl4Co,0.0
mp-13871,P2Pt5,0.0
mp-1418,FeNi3,0.0
mp-14352,KGeSbO5,2.258099999999999
mp-14686,Y5(Si7Os2)2,0.0
mp-1506,Sm5Ge4,0.0
mp-15239,Nd3Ga5O12,3.0611
mp-15325,BaAs3,0.0
mp-15385,Na2UP2O9,2.1753
mp-15405,RbMo2P3O13,2.3407
mp-155,Gd,0.0
mp-15553,KGd2CuS4,0.9275000000000001
mp-15557,Cs2As3,0.6814
mp-15641,CaMgGe,0.0
mp-15826,Lu2Co3Si5,0.0
mp-15827,Ho2Ge2Os,0.0
mp-1640,Ho2C,0.0
mp-16599,K3YbSi2O7,0.0
mp-16690,K2NdP2S7,2.3522
mp-16958,LaNi5P3,0.0
mp-17185,Ca4Si3Pd4,0.0
mp-17455,K7Ta(SO4)6,3.6806
mp-1762,ErRh2,0.0
mp-17639,Y2Zn17,0.0
mp-18100,Na6Ge2Se7,1.5999999999999992
mp-18707,Mg3Pt,0.0
mp-19232,K2CrO4,3.0791
mp-19324,Ca2MgWO6,3.7298
mp-1937,YbCu,0.0
mp-19793,YbFeO3,0.5177
mp-19804,In2Co3S2,0.0
mp-20482,EuAgP,0.0
mp-20498,YbGeRh,0.0
mp-20721,NpTeAs,0.0
mp-20867,Eu(AlGa)2,0.0
mp-20875,TbInRh,0.0
mp-2091,V3B2,0.0
mp-20939,PrPb3,0.0
mp-20998,LiCaPb,0.0
mp-21023,Ti3SnC2,0.0
mp-21061,GdSbPd,0.0
mp-21136,Ce3Ni2B2N3,0.0
mp-21251,UGa5Ni,0.0
mp-2156,TiS2,0.0
mp-2170,Li2Pt,0.0
mp-21885,Ca2InPt2,0.0
mp-22035,KFe2S3,0.0
mp-22260,Y(MnSn)6,0.0
mp-22268,ZrPRu,0.0
mp-22274,HoTiSi,0.0
mp-22382,TbInAg2,0.0
mp-22467,Sn(PbO2)2,2.08
mp-22475,EuSbAu,0.0
mp-22531,Ba2GdNbO6,2.7024
mp-22647,TmCrO4,0.5579000000000001
mp-22796,EuVO4,0.0
mp-2296,Ni3P,0.0
mp-2301,NiP3,0.0
mp-23085,Ba2Cu3(ClO2)2,0.0
mp-23094,Ba5V3ClO12,3.9991000000000003
mp-23140,AgHgSI,1.3679000000000001
mp-23265,GdCl3,2.0064
mp-23568,XeN2(OF4)2,2.1924
mp-2481,Mg2Cu,0.0
mp-2536,Ni2B,0.0
mp-27661,U2Cl5O2,0.0
mp-28280,K5V3O10,3.0582
mp-28361,Al2CdCl8,3.858
mp-28449,CsTbF5,0.0
mp-28948,Cs2V4O9,0.10359999999999901
mp-291,TiOs,0.0
mp-29162,NaNb10O18,0.13569999999999902
mp-29264,SICl7,1.6611
mp-29559,La3Si3Cl2,0.0
mp-29736,YAlGe,0.0
mp-29746,Cd4P2Cl3,1.380599999999999
mp-29958,Hg7(PO5)2,1.4983
mp-30365,BeAu,0.0
mp-30434,BaTl2,0.0
mp-30496,SrCd,0.0
mp-30572,Hf2Ga,0.0
mp-30650,Mg2Ga,0.0
mp-30661,ScGaPd2,0.0
mp-30684,Zr3Ga2,0.0
mp-30755,La2Sn5Rh3,0.0
mp-3077,SmAlGe,0.0
mp-31158,Ca7Ni4Sn13,0.0
mp-31328,MnInPd2,0.0
mp-31360,K2Ta3Cl9,1.4585
mp-31438,YZrSb,0.0
mp-321,RhPb2,0.0
mp-3289,LaMgNi4,0.0
mp-3311,SrUO4,2.1032
mp-3564,BaSc2O4,3.8718999999999992
mp-3758,Eu(NiP)2,0.0
mp-399,Te2Pt,0.0
mp-4860,Gd2CuO4,0.0
mp-504898,Nb2Pd3Se8,0.30870000000000003
mp-505292,Nd3(CuGe)4,0.0
mp-510084,Ho2Ti3Si4,0.0
mp-510567,Ce3CuSnS7,0.0
mp-515,TmTl,0.0
mp-5181,LuSnPd2,0.0
mp-5200,PrBRh3,0.0
mp-5215,NdNiGe2,0.0
mp-5268,U2SbN2,0.0
mp-5351,Tb(GePd)2,0.0
mp-5369,PrB2Rh3,0.0
mp-541134,TeAuBr8,0.8237
mp-541509,Ta2Ni3Se8,0.33540000000000003
mp-541827,Ba2Zn7F18,4.058899999999999
mp-542078,K2LaP2Se7,1.49
mp-542164,CsTb2Ag3Se5,1.456099999999999
mp-542339,CsIn3,0.17039999999999902
mp-542377,Na9Sn4,0.0
mp-542550,Cs2Si2Se5,2.8407999999999998
mp-542630,P4S9,2.7178
mp-542856,CeNiSnH2,0.0
mp-555259,UTe2PbO8,1.9932
mp-556518,K2Pd(NO3)4,1.906699999999999
mp-556690,CsU6F25,0.07399999999999901
mp-556759,Ca5V3O12F,3.868099999999999
mp-556902,KLi4NbO5,3.780299999999999
mp-557022,Sb8Cl2O11,2.8512999999999993
mp-557044,Yb(ClO4)3,0.0
mp-557652,Li3Mo3P3O17,1.7785000000000002
mp-557792,HfSCl6O,3.2535
mp-557920,Zn3(PO4)2,3.4215
mp-558039,Sr2HoSbO6,3.6487
mp-558063,KCu(BiS2)2,0.8553000000000001
mp-558367,KCr2FeO8,1.8518000000000001
mp-558483,K4LiIO6,2.086
mp-558548,Na3B6NO13,3.2938
mp-558702,CsMnF3,3.4556
mp-559004,ErMoClO4,2.8722000000000003
mp-559283,TiSO5,2.1002
mp-559348,BaZr(BO3)2,4.123699999999999
mp-559379,SbTeClO3,3.1656
mp-560012,FeP2PbO7,3.816
mp-560464,UTl2(TeO4)2,1.8389000000000002
mp-560671,Rb2NaVF6,0.0
mp-561232,NaSm(PS3)2,2.907499999999999
mp-567789,InI3,2.3375
mp-567912,SmHgPd,0.0
mp-568411,Th2Ga,0.0
mp-568724,YbGePd,0.0
mp-569310,Sr(POs)2,0.0
mp-569684,Zr(TeCl6)2,3.0734
mp-569853,CsNb4Br11,0.3032
mp-570021,Ti6Tl5AgSe27,0.6648000000000001
mp-570291,DyGa3,0.0
mp-570537,Ce2Br3N,0.0
mp-570711,YbGeAu,0.0
mp-570896,Tl2Pd,0.0
mp-570912,YbInAu,0.0
mp-571020,CsMgH3,2.919
mp-572546,CsRe(Cl2O)2,1.4859
mp-573810,U2Te5,0.0
mp-574004,GdMgGa,0.0
mp-574235,Yb(NiGe)2,0.0
mp-574529,Al(SeCl2)2,1.3831
mp-581517,K2In(PSe4)2,1.3213
mp-582295,La(FeP3)4,0.0
mp-5831,Cu(SbO3)2,0.0
mp-5940,CeB2Ru3,0.0
mp-6113,LiTiAsO5,3.1668
mp-6153,Na3Li3V2F12,2.5643000000000002
mp-619501,U2Te3,0.0
mp-623751,Tb3Ni,0.0
mp-623836,ThNi,0.0
mp-628614,Ce2Si7Rh15,0.0
mp-628643,CuAsPbS3,0.7984
mp-628680,K5Th(PS4)3,1.9602
mp-642644,V2H,0.0
mp-6428,Ba2YRuO6,0.1063
mp-643570,NiH2SO5,0.0
mp-646926,GdRu2,0.0
mp-647426,Cs2NpBr6,0.09740000000000001
mp-6533,NaLu(Pd3O4)2,0.0307
mp-653337,Ba4Yb(CuO3)3,0.0
mp-6979,ThGeS,0.0
mp-697948,Cs4Mg3H10,3.2824
mp-7045,RbGdS2,2.0019
mp-706632,H15RhBr3N5,2.6678
mp-709350,Sr5As5HO18,3.2627
mp-7159,La3TlC,0.0
mp-7194,TbCuAs2,0.0
mp-752692,K2SnO2,1.5542
mp-752932,RbMn4O8,0.0
mp-754598,Hg3SeO6,0.44310000000000005
mp-7555,LiMgSnPd,0.0
mp-755951,VSO4,3.1589
mp-7561,SrPd3O4,0.014400000000000001
mp-757115,KSb5O13,0.7755000000000001
mp-7632,NiMoP,0.0
mp-768950,Sn2(SO4)3,2.593499999999999
mp-769460,Li9Mn12Ni3O32,0.16310000000000002
mp-769582,Sr5Ta4O15,3.3579
mp-771651,Li8Mn13Fe3O32,0.38379999999999903
mp-772389,Ba9Rh8O27,0.0
mp-7736,LuNiSn2,0.0
mp-778057,Na2SnO2,2.1033
mp-778814,Tm2WO6,3.6121
mp-8109,EuB4O7,2.1852
mp-813,ScAl2,0.0
mp-8487,CaSbPt,0.0
mp-8570,Ba3Zr2S7,0.830199999999999
mp-861501,AgHgPd2,0.0
mp-861918,Sc2TlCd,0.0
mp-862492,LiErTl2,0.0
mp-862600,Be2PtRh,0.0
mp-862602,ScAlCo2,0.0
mp-862623,ScSnRh2,0.0
mp-862684,LiHf2Os,0.0
mp-862690,Ac,0.0
mp-862757,PrDyMg2,0.0
mp-862816,PaGe3,0.0
mp-862839,Pr10C4Br15,0.0
mp-862894,AcSbAu2,0.0
mp-862939,PmMgCd2,0.0
mp-863674,ErMgHg2,0.0
mp-863679,ErTaRu2,0.0
mp-863711,ErGaRh2,0.0
mp-864756,Yb2MgIn,0.0
mp-864763,LiYb2Rh,0.0
mp-864893,NdAgHg2,0.0
mp-864896,Zr2CoTc,0.0
mp-864904,HoCdAg2,0.0
mp-864920,MgZrAu2,0.0
mp-865109,NaSmTl2,0.0
mp-865131,Hf2OsRh,0.0
mp-865152,MgAlPd2,0.0
mp-865178,Hf2IrRh,0.0
mp-865205,Dy2Ni7,0.0
mp-865258,TbYbRh2,0.0
mp-865369,Tm2OsAu,0.0
mp-865374,Tm2OsPd,0.0
mp-865469,Ti2MnRu,0.0
mp-865548,TiInCo2,0.0
mp-865812,LiSmHg2,0.0
mp-865829,Lu2CuIr,0.0
mp-865901,BeCo2Si,0.0
mp-866218,Ti2MnRh,0.0
mp-867370,Pr3Sn5Au6,0.0
mp-867769,ScZnRh2,0.0
mp-867896,ScZnCu2,0.0
mp-867967,La3AlVS7,0.0
mp-8843,SrSiPd,0.0
mp-9115,Ba2SrIrO6,0.0
mp-9418,Eu(CuO2)2,0.0
mp-975605,Pr6IrCl11,0.708499999999999
mp-978099,K3Gd(PO4)2,1.2902
mp-978545,Sm2AgHg,0.0
mp-978796,SmDyIn2,0.0
mp-979465,SmCd3,0.0
mp-981547,PrH3,0.286299999999999
mp-989581,LaReN3,0.0
mp-9989,Nb2AsC,0.0
mp-1002104,LaPt,0.0
mp-1002107,LaRh,0.0
mp-10058,YbCo3B2,0.0
mp-1007907,ErTlTe2,0.8316999999999991
mp-1008680,TiGePt,0.9375999999999991
mp-1009657,CaN2,0.0
mp-10142,Ta3B4,0.0
mp-1018117,CeRh,0.0
mp-1018178,Ba2Zn,0.0
mp-1018828,NpSeO,0.0
mp-1019358,ThAsS,0.0
mp-1021508,Ce(As3Ru)4,0.21830000000000002
mp-1021509,Ce(FeAs3)4,0.19430000000000003
mp-1024955,PrNiSb,0.0
mp-1025326,Tb2Mo2C3,0.0
mp-1025338,Tl2CuF4,0.0
mp-1025431,SmPt,0.0
mp-10581,Nd(AlGe)2,0.0
mp-1067743,YbCoC2,0.0
mp-1069824,Ca2CdPt2,0.0
mp-1070753,CeCoSi3,0.0
mp-1072619,PrAg2,0.0
mp-10740,Pa,0.0
mp-1076993,Gd2InNi2,0.0
mp-1077063,La2Bi,0.0
mp-1077082,TbCdNi4,0.0
mp-1077398,TbSi2,0.0
mp-1077498,ErCu4Ag,0.0
mp-1078483,Ca2GePt2,0.0
mp-10789,Yb2Ge6Pd,0.0
mp-1079690,GdSiAg,0.0
mp-1079780,LaHgPd,0.0
mp-1079999,Zr2NiP2,0.0
mp-1080077,UGaPt,0.0
mp-1080817,NbFeB,0.0
mp-10834,RbNd2CuS4,1.0581
mp-1093,ThGe,0.0
mp-1095411,EuIn2(GeIr)4,0.141099999999999
mp-1095563,ScSiIr,0.0
mp-1095568,CeMgSn,0.0
mp-1095680,PrGeRh,0.0
mp-1097015,KSnI3,1.9402
mp-1101762,PrAl2Ag,0.0
mp-1102026,BaGaGe,0.0
mp-1102052,DyAsS,0.09230000000000001
mp-1102390,Eu2Ge3Au,0.0
mp-1102890,TmTc2,0.0
mp-1103232,DyAsPt,0.0
mp-1103238,LuGaPd,0.0
mp-1103507,Ho(Ni2As)2,0.0
mp-1103607,BiPtSe,0.0
mp-1103963,Lu3Pd4,0.0
mp-1104116,La2H5,0.0
mp-1104232,K3Ca(PO4)2,0.036099999999999
mp-1104366,Ti4NiS8,0.0
mp-1104424,Ba8Sb4H2O,0.654199999999999
mp-1105684,Tb2Te3,0.792199999999999
mp-1105925,La7Pd3,0.0
mp-1106011,Nd3Co,0.0
mp-11090,EuCdPd,0.0
mp-1113569,Cs2CeAgBr6,0.28039999999999904
mp-1114376,Rb3RhF6,2.226
mp-1114625,Rb3InCl6,3.7156000000000002
mp-11220,Sc2Al,0.0
mp-11305,Li2CdPb,0.0
mp-11561,TbRh,0.0
mp-11594,PrB2Ir3,0.0
mp-11609,Sb(MoS)2,0.0
mp-1164,ThC,0.0
mp-11743,LiYGa4,0.0
mp-1178133,KSmO2,3.9446
mp-1178135,KLuO2,3.940399999999999
mp-1183078,Ac2MgPb,0.0
mp-1183425,Be3Co,0.0
mp-1184263,Eu2TlHg,0.0
mp-1184423,Gd3I,0.0
mp-1184508,GdSnPd2,0.0
mp-1184724,Ho2CoRu,0.0
mp-1184772,Hf3Pb,0.0
mp-1185568,Mg149Pt,0.018000000000000002
mp-1185593,Mg149P,0.000299999999999
mp-1185594,Mg149In,0.5296000000000001
mp-1186001,MnZnPd2,0.0
mp-1186479,Pm2SiPt,0.0
mp-1186591,PmHoIn2,0.0
mp-1186804,Pu2HgGe,0.0
mp-1186984,ScBr3,2.25
mp-1187337,TbErRh2,0.0
mp-1187920,ZnGeRh2,0.0
mp-1188022,ZrMnRh2,0.0
mp-1189379,Tb2Ni7,0.0
mp-1189532,Th3In5,0.0
mp-1189703,YbGe2Pd,0.0
mp-1189924,Nd2Zn5Sn,0.0
mp-1190078,CeGa6Ni,0.0
mp-1190612,UMnB4,0.0
mp-1190660,Tb3MnB7,0.0
mp-1191010,Eu2SiN3,0.0
mp-1191610,Zr7As4,0.0
mp-1192484,Y10Cd3Ru,0.0
mp-1192721,La3IrBr3,0.0
mp-1192904,Ba(GdS2)2,0.7150000000000001
mp-1193402,Eu3(Ga2Ge3)2,0.0
mp-1193634,CsSnPS4,2.136699999999999
mp-1194059,Ca(ErS2)2,1.5701
mp-1195415,RbNbV2O8,2.5132
mp-1195606,K2Zn3(SeO3)4,4.1389
mp-1195618,Ag9P14(OF)28,0.0
mp-1196336,Cs2UAs2O9,2.4834
mp-1198156,Zr(TlS)4,1.5765
mp-1198347,Tb6Al43Cr4,0.0
mp-1198646,Cs4BaV6O18,3.0382
mp-1198946,GdCo5P3,0.0
mp-1199016,Ga5Pt,0.0
mp-1199284,Gd4GaSbS9,1.5642
mp-12003,Al9Ir2,0.0
mp-1200538,Tb2B6Os,0.0
mp-1200970,Sm5Zr3(Ni4As3)4,0.0
mp-1201546,Sr4GeAs4,0.8140000000000001
mp-1201790,CsP7,1.276599999999999
mp-1202719,Pr2Sb4Ir3,0.0
mp-1204059,Fe3Ag7(P2O7)4,1.3194
mp-1204787,Ho(BRu)4,0.0
mp-1205546,Ho2Co2I,0.0
mp-1205577,Pr2MgCu2,0.0
mp-1205598,Ba2PuMnO6,0.0
mp-1205627,Nb(SeI)2,1.0028
mp-1205674,Ba2ScOsO6,0.0
mp-1205837,Ba2HoMoO6,0.0
mp-1205871,Dy6FeBi2,0.0
mp-12059,Sm(PRu)2,0.0
mp-1206114,ThRe2SiC,0.0
mp-1206125,Sm(PPd)2,0.0
mp-1206166,ErCdAu,0.0
mp-1206430,DyCu4Pd,0.0
mp-1207747,Yb6Al43V4,0.0
mp-1207822,Y4MgIr,0.0
mp-1207868,UAgF6,0.9267000000000001
mp-1207915,Tm4CdNi,0.023700000000000002
mp-1207967,Y3Cr2(GaO4)3,3.2335
mp-1207988,Tm2(Al3Ir)3,0.0
mp-1208051,Tm2Sc3Si4,0.0
mp-1208060,Tm4MgCo,0.0
mp-1208854,SmAs2Pd3,0.0
mp-1208914,Sm3(Al3Ru)4,0.0
mp-1209142,TlAs5PbS9,1.573599999999999
mp-1209625,PuF4,0.0
mp-1209816,NpF6,1.1547
mp-1209958,NdTl(WO4)2,3.173999999999999
mp-1210096,Pr(InPt)2,0.0
mp-1210179,Nb2(Ni7B2)3,0.0
mp-1210753,Li2Al,0.0
mp-1211368,KLaCuTe4,0.0
mp-1211536,K2TmF5,7.1225
mp-1211869,La3Sc2(GaO4)3,3.3143000000000002
mp-1212381,Ho2(MoO4)3,3.5921000000000003
mp-1212449,Gd2Be2SiO7,3.314799999999999
mp-1212482,Hf2Cr4Si5,0.0
mp-1212749,EuAl12O19,0.08849999999999901
mp-1212874,Er2(Ga3Ir)3,0.0
mp-1212876,Er2Si5Rh3,0.0
mp-1212944,Er4CdPd,0.0
mp-1212980,EuInO3,0.0
mp-1213073,Dy2(Al3Ir)3,0.0
mp-1213242,Dy6Al43V4,0.0
mp-1213258,Er6InCo2,0.0
mp-1213916,Ce2(Al3Rh)3,0.0007000000000000001
mp-1214304,Ca3Tm2(GeO4)3,3.259
mp-1214515,Ba6Tm2Al4O15,3.8718999999999992
mp-1214541,Ba6Dy2Al4O15,3.9241
mp-1215420,Zr3TaFe8,0.0
mp-1216351,VGaNi6,0.0
mp-1216581,V2FeSi,0.0
mp-1216627,UTaC2,0.0
mp-1217007,Tm4Co3,0.0
mp-1217675,Tb2ZnSb4,0.0
mp-1217676,Tb8Se15,0.3204
mp-1218117,Ta3(InS3)2,0.0
mp-1218197,SrLaGa3O7,3.277299999999999
mp-1218874,Sr12Sn4N3,0.0
mp-1219124,Sr14GaAs11,0.5303
mp-1221181,Na4Eu(SiSe3)2,0.9083999999999991
mp-1221315,Na2Sr3P4,0.9308999999999991
mp-1221587,Na3Eu2(GeS4)2,0.0
mp-1222839,LaUTe6,0.0
mp-1223039,KTaWO6,3.2273
mp-1223497,La2Ge4Pd3Pt,0.0
mp-1223750,K9In9GeSb22,0.472199999999999
mp-1223910,HoCoNi,0.0
mp-1223919,IrRh,0.0
mp-1224475,HfPt4,0.0
mp-1224770,Fe3NiAs4,0.0
mp-1224823,GaGePt6,0.0
mp-1225159,Er2CrSbO7,2.1765
mp-1225477,Er10NiSb5,0.0
mp-1225864,CsVTeO6,1.634
mp-1225870,CsTaS3,0.5344
mp-1225938,CsMgCoF6,2.2687
mp-1226019,Co5NiS8,0.0
mp-1226160,Cr5InS8,0.1905
mp-1226548,CsSiSbO5,2.125499999999999
mp-1227603,Ca5As3HO13,3.9048
mp-1227620,Ca3YTi4O12,0.0
mp-1227698,Ca2TlIn,0.0
mp-1228250,Ba3Ho2MoO9,2.142899999999999
mp-12644,Ba2LuNbO6,2.851
mp-12716,LiTlPd2,0.0
mp-12846,YbGaGe,0.0
mp-12899,HoSi,0.0
mp-13206,PrZnPO,1.1743000000000001
mp-13922,Ba2Ge,0.05279999999999901
mp-1482,Zr2Al3,0.0
mp-14935,P3RhO9,1.807999999999999
mp-15379,K2SiO3,3.7439
mp-15415,K2GaAs2,1.0264
mp-15797,LiErSe2,1.7449999999999992
mp-1605,Ag3O4,0.0
mp-16403,SnHgP14,1.206699999999999
mp-16507,LuAl,0.0
mp-16596,K3HoSi2O7,3.7221
mp-16622,NdAl7Au3,0.0
mp-16663,Ba6Y2Ti4O17,2.6515
mp-16713,Pr2B5,0.0
mp-16856,RbMoP2O7,2.9032
mp-16913,Ag2SeO3,1.7266
mp-17114,Nd2Sn2O7,2.8725
mp-17201,Er2WO6,3.6749
mp-17396,SrNi5As3,0.0
mp-17465,Gd2Cu(SeO3)4,0.012399999999999
mp-17504,Sr3(GeAs2)2,0.7976000000000001
mp-17722,PrTaO4,3.5846
mp-18160,Cs2SrV4O12,2.762699999999999
mp-18222,Lu4Ge6Rh7,0.0
mp-18254,Nb7P4,0.0
mp-18308,CaZn2(PO4)2,3.7972
mp-18581,Hf2Co4P3,0.0
mp-18641,NaMnCrF6,2.2911
mp-18710,RbSm2Ag3Se5,1.4238
mp-18721,Mn2P2O7,2.3149
mp-18848,Sr2MgWO6,3.2655
mp-18997,LiMnPO4,3.6658
mp-19081,MnMoO4,2.7361
mp-19242,YNiO3,0.0
mp-19299,CrBO3,0.0
mp-19407,MnWO4,1.5844
mp-19713,Sc3In,0.0
mp-19721,GdNbO4,0.2109
mp-19743,LaFeGe3,0.0
mp-19841,ErGeRu,0.0
mp-19870,GaFe3,0.0
mp-20003,Ce(Al2Cu)4,0.0
mp-20043,ErGeRh,0.0
mp-2006,V3Ir,0.0
mp-20171,Pu(SiNi)2,0.0
mp-20290,TbCuPb,0.0
mp-20292,Np(SiRh)2,0.0
mp-20420,KGdTe2,0.740899999999999
mp-20641,MnCoO3,0.0
mp-2066,EuCu5,0.0
mp-20710,CeSiNi,0.0
mp-20903,PrIn3,0.0
mp-20949,MnSiNi,0.0
mp-20985,TaPbS2,0.0
mp-21022,Nd3InN,0.0
mp-21050,UFe2,0.0
mp-21252,GdCo3B2,0.0
mp-21313,Mn3GaC,0.0
mp-21333,Cd(FeO2)2,1.8303999999999991
mp-21342,V3Sn,0.0
mp-21394,EuO,0.0
mp-21474,Eu(MnP)2,0.0
mp-21487,EuIn2Rh,0.0
mp-21576,Sc2Te,0.0
mp-21801,Rb4PbO3,2.1723
mp-21949,K4PbO3,2.279
mp-22019,Yb3Sb5O12,0.0
mp-22228,DyCoSn,0.0
mp-22250,Mg2SiB2Ir5,0.0
mp-22468,Tb2Fe3Si5,0.0
mp-22599,NdCoO3,1.239999999999999
mp-22618,Y(CuO2)2,0.0
mp-22682,In2Pt,0.0
mp-22683,CeCuSn,0.0
mp-232,DyRh,0.0
mp-23264,TiI3,0.20190000000000002
mp-23405,Cs2TeBr6,2.2091
mp-24662,Rb4Mg3H10,3.426199999999999
mp-253,ScCo2,0.0
mp-2541,SmTl,0.0
mp-26372,MoPO5,1.143599999999999
mp-2643,Ti3Cu4,0.0
mp-27239,Cs2VF6,1.8321
mp-2732,PRh2,0.0
mp-27350,U(BH4)4,0.08320000000000001
mp-27487,Li2ThN2,2.280299999999999
mp-27510,MgMn2O4,0.0
mp-27587,Li8Pb3,0.0
mp-27595,K2ReF8,1.0693
mp-28102,Ba3Te4O11,3.2217000000000002
mp-28509,Ta4SiTe4,0.07689999999999901
mp-28588,Na2BeO2,2.802699999999999
mp-28897,BIrPd,0.0
mp-28985,SbSeCl9,1.9981
mp-29068,Hf5FeTe3,0.0
mp-29186,La(SiP3)2,0.8990999999999991
mp-29977,Rb3BS3,2.6948
mp-29995,La3SiBr3,0.0
mp-30196,ErCuP2,0.0
mp-30235,Lu3Ge3Ir2,0.0
mp-30395,ScInAu2,0.0
mp-30618,DySnPd,0.0
mp-30666,Sc3Ga2,0.0
mp-31124,Y2MoO6,2.220999999999999
mp-31203,Pr(SiAg)2,0.0
mp-3268,YbB2Ru3,0.0
mp-3340,TaAlCo2,0.0
mp-3455,Er(NiP)2,0.0
mp-442,RhPb,0.0
mp-4991,Tb2Sn2O7,2.9319
mp-504423,Mn3(CoO4)2,0.8454
mp-505332,LaFeSi,0.0
mp-505820,NiPS,0.0
mp-510402,GdS,0.0
mp-510471,GdCuS2,1.0301
mp-5305,CuAsS,0.0
mp-531980,Tl4Ag18Te11,0.0
mp-532462,Ca14MnAs11,0.0
mp-5407,TiAlCo2,0.0
mp-540773,Ca2GeS4,2.5615
mp-540945,Na2Li3GaO4,3.2395
mp-542781,Rb8Tl11,0.0
mp-5519,HoGeAu,0.0
mp-5538,YSnPd2,0.0
mp-554313,Nd2Te2W2O13,3.4612
mp-554326,ZrV2O7,2.5907
mp-554523,TeBrO3F5,2.7387
mp-554952,Te2Pb3(ClO3)2,2.6027
mp-555140,Cs2Li3GaO4,3.8453
mp-555683,DyMoClO4,2.8909000000000002
mp-555979,Li2Pr(NO3)5,3.6557
mp-556382,EuClF,0.0476
mp-556672,Sn(SeO3)2,2.5946
mp-557171,Na2Cu(PO3)4,0.8865000000000001
mp-557231,KTeO2F,3.706299999999999
mp-557826,Li3U7(PO7)5,1.9176000000000002
mp-559227,RbGeBiS4,1.9845000000000002
mp-559442,Ba2Ru7O18,0.0
mp-559637,Dy(IO3)3,3.4395
mp-559700,RbMnO2,0.0
mp-560082,Ho2Ge2O7,3.7385
mp-560110,BaUTiO6,1.9820000000000002
mp-560126,Fe4(P2O7)3,2.3761
mp-560907,MoSeS2Cl5,2.0114
mp-561241,USb3O2F17,2.447699999999999
mp-561523,NbTlCl4O,2.1768
mp-562742,Co3P4PbO14,3.0505
mp-567424,K8NbAs5Pb,1.2016
mp-567543,UHg3(TeCl3)2,0.24220000000000003
mp-568055,Nd(PRu)2,0.0
mp-568234,Na4CaSn6,0.0
mp-568318,KTaTe3,0.41809999999999903
mp-569121,La2B3Cl,0.0
mp-569582,La4MgCo,0.0
mp-569697,Ce(NiP)2,0.0
mp-569854,Ga3Bi5Cl12,1.8017999999999992
mp-569989,Nb2C,0.0
mp-570652,Hg6BiAs4Cl7,1.2956
mp-570707,NdSe2,0.0
mp-571490,Pr3CCl5,2.3942
mp-571606,Sm4Mg3Co2,0.0
mp-572231,CsDy(MoO4)2,3.602
mp-579556,CsHoZnTe3,1.3765
mp-580092,Hf6Ni16Ge7,0.0
mp-581150,Cs2Te10Mo9,0.0
mp-581736,Eu(SiRu)2,0.0
mp-5862,CrCuS2,0.267
mp-5918,Hf2NiP,0.0
mp-600622,EuIO,0.0
mp-601820,Fe3Co,0.0
mp-612175,Eu3(AsPd)4,0.0
mp-622018,BAs5(Pb3O10)2,3.1525
mp-638141,LiSn5Rh3,0.0
mp-640047,Mn2GeSe4,0.0
mp-644499,CeCoGeH,0.0
mp-647164,Cu12Sb4S13,0.0
mp-648448,Eu2GeO5,0.0
mp-650598,U(PbO2)3,1.5265
mp-672289,Ge3N4,2.0807
mp-676500,Cr9In7S24,0.0
mp-676712,ReSeCl,1.5372
mp-680198,Cs4Th2P5Se17,1.3128
mp-697068,SiPd2,0.0
mp-711,CeGa6,0.0
mp-7211,CsPrHgSe3,1.3367
mp-753493,CeU5O12,0.0
mp-7568,ThSb2,0.0
mp-758103,YH2(CO3)2,3.4584
mp-764233,Na8CoO6,0.9553
mp-768383,SmBiO4,0.6471
mp-768976,Cs3ScO3,2.7439
mp-769284,Dy2SeO2,2.2862
mp-773582,LiTe(H3N)4,1.283499999999999
mp-774425,FeSb3(PO4)6,1.8466
mp-775161,Li2Ti3VO8,0.553199999999999
mp-779424,Gd3TaO7,2.843999999999999
mp-7832,BW,0.0
mp-7916,HfSiS,0.0
mp-861672,Ti2FeIr,0.0
mp-862615,Er2NiRu,0.0
mp-862705,AlZnIr2,0.0
mp-862731,Pm3Ge,0.0
mp-862837,PmAlAg2,0.0
mp-862878,PmAg3,0.0
mp-862880,PmBiPd2,0.0
mp-862975,PmZn2Cd,0.0
mp-863411,V18Ag7O48,0.7697
mp-863714,Pm2NiRh,0.0
mp-863728,Ho4Ni13C4,0.0
mp-864651,Ta2NbRu,0.0
mp-864775,HoAgHg2,0.0
mp-864979,Gd2ReC2,0.0
mp-865162,MgGeRh2,0.0
mp-865248,TmNbRu2,0.0
mp-865319,Tm2CuRu,0.0
mp-865732,LuCd2,0.0
mp-865753,YbErPd2,0.0
mp-865785,YbHfIr2,0.0
mp-865912,LiZn2Rh,0.0
mp-865963,LiGaAg2,0.0
mp-866037,GaNiRh2,0.0
mp-866052,Gd2PdRu,0.0
mp-866106,Ba2HgPb,0.0
mp-866112,HoNbRu2,0.0
mp-866126,DyNbRu2,0.0
mp-866195,Li2LaTl,0.0
mp-866220,CaNdZn2,0.0
mp-867831,DyMgRh2,0.0
mp-867858,ScUTc2,0.0
mp-867879,SmHg3,0.0
mp-867915,ScGaCo2,0.0
mp-8709,KIn(GeO3)2,2.3136
mp-8780,Cr2N,0.0
mp-8858,RbCuF3,0.0
mp-8999,NbNiTe5,0.0
mp-9177,Y2Al3Si2,0.0
mp-9249,NaGeAu,0.0
mp-9278,U2Si4W3,0.0
mp-9364,RbSmS2,0.0708
mp-9421,Ho(CuO2)2,0.0
mp-969,YbAl2,0.0
mp-972653,SmHoTl2,0.0
mp-977409,NbTc2Ge,0.0
mp-977411,NpSnAu2,0.0
mp-978984,TmMgPt2,0.0
mp-979424,YErIn2,0.0
mp-983358,HfAlFe2,0.0
mp-983509,Na3Cd,0.0
mp-985506,Ac3Tl,0.0
mp-989544,Cs2SeClF6,0.0
mp-989559,Cs2NaLiF6,0.0
mp-989589,LaMnN3,0.0
mp-9913,Fe5B2P,0.0
mp-9954,HfAs,0.0
mp-998512,InPbCl3,2.5143
mp-1005755,SmGe2Pt,0.0
mp-1008488,BiPd,0.0
mp-1016092,Re2O7,2.6752000000000002
mp-1018027,VN,0.0
mp-1018113,YAu2,0.0
mp-1018952,PrZnIn,0.0
mp-1019729,Eu3AlO5,0.0
mp-1024954,HoCuSn,0.0
mp-1024957,TmInCu4,0.0
mp-1025170,Ti3B4,0.0
mp-1025427,Ta2GaC,0.0
mp-1025467,Cu2SnHgS4,0.1985
mp-1025508,ErGa2Ni,0.0
mp-1029843,Ba2CrN3,0.0
mp-1048,TiNi,0.0
mp-10480,CsAg5Se3,0.0057
mp-1059,NdCd,0.0
mp-1068340,CsGeBr3,2.2258
mp-10690,EuCoGe3,0.0
mp-1070137,BaSi3Pd,0.0
mp-10746,Mg2Cu3Si,0.0
mp-1077293,GdInCu4,0.0
mp-1077479,EuBi2,0.0
mp-1078244,ScNi2SbO6,0.0
mp-1078349,La2BiN,0.0
mp-1078489,HoAlCu,0.0
mp-1078537,PrLuS3,0.8091
mp-1079584,U2InIr2,0.0
mp-1079914,HfSb,0.0
mp-1080129,SmSnRh,0.0
mp-1080133,SrGa3Pd,0.0
mp-1080427,TmSnIr,0.0
mp-1080470,Ba2SmOsO6,0.0726
mp-1080567,Sm(NiSb)2,0.0
mp-10887,HfAlCu2,0.0
mp-10922,Mg2Co12P7,0.0
mp-1092296,DyGa2Pd,0.0
mp-1094122,Mg,0.0
mp-1095261,ScCoGe,0.0
mp-1095642,Eu2Ge,0.0
mp-1099,NiGe,0.0
mp-1102875,Er2Al,0.0
mp-1102959,YAsS,0.0815
mp-1103511,Lu(Al2Cu)4,0.0
mp-1103758,CeAu6,0.0
mp-1104447,KGdGeS4,0.0
mp-1104517,Yb3Ga9Pt2,0.0
mp-1105097,Ti4CoS8,0.0
mp-11078,BaIn2Rh,0.0
mp-1111079,K3ScF6,6.1606
mp-1112945,Cs2NdAgCl6,3.8586
mp-11252,MnAu2,0.0
mp-11388,GaIr,0.0
mp-11431,CaGa3Ni2,0.0
mp-1147653,CaCu3O4,0.0
mp-1147679,In(Cu3O4)2,0.0
mp-1182469,Eu2O3,0.0
mp-1183197,AcSnHg2,0.0
mp-1183627,CdAg3,0.0
mp-1183783,DyErRu2,0.0
mp-1184631,Ho2AgRu,0.0
mp-1185035,LaErIn2,0.0
mp-1185419,LiSiPt2,0.0
mp-1185511,LuHfCo2,0.0
mp-1186233,NbSnRu2,0.0
mp-1186496,Pm3Al,0.0