material_id,pretty_formula,band_gap
mp-1220046,Ni11(GeSe2)2,0.0
mp-1220099,Ni4(SnSb3)3,0.0
mp-1220151,Ni(Te4Mo3)2,0.011800000000000001
mp-1220167,Ni11(GeTe2)2,0.0
mp-1220810,Nb10(SnGe)3,0.0
mp-1220947,NaIn10CuS16,0.0
mp-1221000,NaTaWO6,3.2359
mp-1221015,NaMoAsO6,2.6883
mp-1221355,Na2GeTeO6,2.7868
mp-1221356,MnNiP2O7,3.028799999999999
mp-1221569,MnZn(GaSe2)4,0.9892999999999991
mp-1221626,MnFeP2,0.0
mp-1221766,MnCr8Cu3S16,0.0
mp-1222149,Na3H5(SeO4)4,3.376699999999999
mp-1222344,LiTaGeO5,3.7981
mp-1222352,LiTiRhO4,1.0775
mp-1222461,LiBi3(IO2)2,1.8663
mp-1222652,Li2MgPb,0.0
mp-1222733,LaZn4Ni,0.0
mp-1222832,LaPr(CoP)4,0.0
mp-1222868,LaNdNi10,0.0
mp-1223150,La4SnBi2,0.0
mp-1223343,KTiNbO5,2.7094
mp-1223394,KTaTiO5,3.0422
mp-1223615,KTa5Pb2O15,2.472899999999999
mp-1223714,K5Sb4,0.0
mp-1223881,K7Na17(ZnSn2)4,0.011300000000000001
mp-1223911,InGa(AgSe2)2,0.4595
mp-1223926,Ho2SbO2,0.0
mp-1224110,Ho6Mn(GeS7)2,0.9645999999999991
mp-1224112,Ho8(AlGe3)3,0.0
mp-1224195,HoUTe6,0.0
mp-1224376,Ge2SeS,1.1343
mp-1224392,K3In(PO4)2,3.3890000000000002
mp-1224624,K9Ta2VS12,1.8268
mp-1225155,EuSiNi2Ge,0.0
mp-1225344,Dy2MnSbO7,0.375899999999999
mp-1226118,Cs4BiSbCl12,0.5779000000000001
mp-1226134,Cs4TlSbCl12,0.9491
mp-12264,LiYbF4,0.035599999999999
mp-1226620,CeCuSi,0.0
mp-1226905,Ce2(TlSn)3,0.0
mp-1226957,Cd3InAu12,0.0
mp-1227023,Ca6Br2N3Cl,2.4139
mp-1227028,CaYbAl4,0.0
mp-1227101,CaTaAlO5,3.8748999999999993
mp-1227673,Ca4AlZn43,0.0
mp-1227713,Ca2Tl2O5,0.8481000000000001
mp-1227962,BaCd3Ga,0.0
mp-1228211,Ba5Ga6,0.0
mp-1228536,Ba2TiFeO6,0.0
mp-1228725,Ba10BrN5Cl4,1.0459
mp-1228896,Ba5BiPb4O15,0.0
mp-1228950,AlGa(CuSe2)2,0.7222000000000001
mp-1229222,Ag10Te4BrCl,0.22080000000000002
mp-1232372,ScBC,0.0
mp-1272351,Ba3Cr2O8,1.085999999999999
mp-1284679,Li2FeCo3O8,0.7058
mp-1287195,Ba3Cr2O8,1.1368
mp-1289469,Sr2CoGe2O7,2.3492
mp-1290671,Li2V3CrO8,1.0953
mp-1311728,Li4Ni3SbO8,0.0
mp-1343,NdNi2,0.0
mp-1371,Sn3Pd,0.0
mp-13740,AgAsS2,1.5694
mp-14676,NdTa7O19,3.173999999999999
mp-15252,Cu2GeS3,0.3743
mp-15590,Sr2Nb2O7,2.8445
mp-1574300,V2OF5,1.812599999999999
mp-15809,Cr2B,0.0
mp-16454,BaPr2ZnS5,1.3901
mp-16860,Mg13Ir3,0.0
mp-16960,AlPt2,0.0
mp-17385,Rb2Cr2O7,2.7906
mp-17468,SrZrSi2O7,4.7097999999999995
mp-17807,LiUNbO6,1.7496
mp-18288,Ti(SnO2)2,1.077
mp-18332,Lu2ZnS4,2.3851
mp-19078,Ba2SrWO6,3.3974
mp-19230,K3NaCr2O8,3.0787
mp-19318,Ag2MoO4,1.967299999999999
mp-19462,KP2WO8,3.5098000000000003
mp-19853,TbFeO3,1.6324
mp-19921,PbO,1.7743000000000002
mp-20291,YPb3,0.0
mp-20406,Lu2V2O7,1.3162999999999991
mp-20954,DyTiSi,0.0
mp-21667,CeZn(BO2)5,0.48749999999999905
mp-22165,Ce(CoB)4,0.0
mp-22264,CsSr2Nb3O10,1.4806
mp-22318,SrAl2,0.0
mp-22390,SrRuO3,0.0
mp-22538,Li8PbO6,2.3513
mp-22608,CaVO3,0.43310000000000004
mp-22893,PbI2,2.3703
mp-2305,MoC,0.0
mp-23144,TlRe3(Se2Cl)2,1.5198
mp-23159,SrBi3,0.0
mp-23224,BiTe,0.019299999999999002
mp-23940,NaHO,3.1782
mp-24029,Na2H10SO5,3.355699999999999
mp-24436,Ca5As4(HO2)10,3.8225
mp-2573,NpAl3,0.0
mp-26086,LiMo2(PO4)3,1.009
mp-27022,V2P5O16,0.197799999999999
mp-27127,Te4O9,2.3744
mp-27475,WSCl4,1.9711
mp-28180,Sb4F15,3.6879
mp-28194,BiClF8,2.105899999999999
mp-28518,Tl6SBr4,1.8121
mp-28711,Sb2S2O,1.402499999999999
mp-28807,Na7(Cu6S5)2,0.0
mp-29075,Ga3Bi5Cl12,1.8019
mp-2951,CdGeO3,1.5051
mp-3043,Sr(Mo3S4)2,0.0
mp-30513,La3Sn13Rh4,0.0
mp-31113,Dy3GaO6,3.5913
mp-31128,La6Mo8O33,3.225799999999999
mp-31213,Sr4Ti3O10,1.786299999999999
mp-31907,Mn(ReO4)2,3.0833
mp-3257,KAuSe5,1.0703
mp-3316,BaCeO3,2.2231
mp-3354,Ho3(GePd)4,0.0
mp-4158,Nd2CuO4,0.0
mp-4449,Tl2SeO4,3.2653
mp-45,Ca,0.0
mp-4515,Ag3SbS3,1.370099999999999
mp-504262,LiCo(PO3)3,3.0503
mp-510070,Sr3NiRhO6,0.0
mp-510417,WO3,1.355
mp-5229,SrTiO3,1.8274
mp-540855,Rb6O,0.0
mp-542724,LaNbO4,3.8487
mp-547094,RuO4,2.3971
mp-553880,ZnS,2.031
mp-554253,ZnS,1.9866000000000001
mp-554260,SnSb2As2F18,3.4557
mp-554630,ZnS,1.9944000000000002
mp-554986,ZnS,2.03
mp-554998,LiV(IO4)2,2.6322
mp-554999,ZnS,2.009699999999999
mp-555311,ZnS,2.0318
mp-555583,ZnS,2.0042
mp-555665,NaVO3,3.0385
mp-555773,ZnS,2.022999999999999
mp-555782,ZnS,1.9988000000000001
mp-556058,Na2RuO3,0.0
mp-556152,ZnS,2.0251
mp-556155,ZnS,2.0073
mp-556207,ZnS,2.0244
mp-556280,ZnS,2.0157
mp-556361,SrV2ZnO7,2.779
mp-556363,ZnS,2.029
mp-556392,ZnS,2.0369
mp-556732,ZnS,2.0181
mp-556950,ZnS,2.0301
mp-557009,ZnS,2.031399999999999
mp-557026,ZnS,2.0109
mp-557054,ZnS,1.689499999999999
mp-557062,ZnS,2.0239
mp-557175,ZnS,2.0281
mp-557346,ZnS,2.0266
mp-557418,ZnS,2.0087
mp-557473,K5LiGe2O7,3.151399999999999
mp-558446,AgHgSI,1.8966
mp-558822,Na2Fe3(PO4)3,0.0
mp-559518,Li2FeSiO4,3.129799999999999
mp-559796,Al2(MoO4)3,3.7649
mp-560098,SbO2,1.922099999999999
mp-560129,Na3La2(BO3)3,3.7934
mp-560231,CuSb2(XeF4)6,0.0
mp-560276,Ag2Mo2O7,1.988199999999999
mp-560316,Hg3SO6,0.560299999999999
mp-560333,Ta2Te4Br10O,1.053599999999999
mp-560586,RbTi2(PO4)3,2.629
mp-560611,HoCuS2,1.6624
mp-561113,Ag2BiO3,0.516799999999999
mp-561127,K2Ce(NO3)6,1.4649
mp-561245,Sr8Si2PtO14,2.3255
mp-567196,Cs3Sb2Cl9,2.5094000000000003
mp-567199,PbI2,2.3556
mp-567336,CdI2,2.2916
mp-567359,CdI2,2.3394
mp-567378,Ba5P9,0.0
mp-567402,CdI2,2.4173
mp-567483,CdI2,2.0518
mp-567534,CdI2,2.4145
mp-567567,CdI2,2.3734
mp-567768,YbCuGe,0.0
mp-567890,AgHg3As2Cl3,1.096299999999999
mp-567917,TlBi(PSe3)2,1.4432
mp-567932,LaMg4Cu,0.0
mp-568135,Cs4Sc6CCl13,0.0
mp-568340,Ho5NiPb3,0.0
mp-568483,NbCl5,2.2959
mp-568493,In3SnI5,2.0208
mp-568629,YbAg,0.0
mp-569608,BP2N2Cl7,3.0652
mp-569613,Ba2P7Cl,1.9311
mp-569964,CdI2,2.4192
mp-570019,CdI2,2.4216
mp-570054,CdI2,2.4158
mp-570074,Sc3IrC4,0.0
mp-570082,CdI2,2.4222
mp-570127,CdI2,2.4167
mp-570410,CdI2,2.379
mp-570472,CdI2,2.3081
mp-570511,CdI2,2.3745000000000003
mp-570559,CdI2,2.417
mp-570680,Er(GeRh)2,0.0
mp-570695,CdI2,2.417799999999999
mp-570771,BaLi2(MgSi)2,0.0
mp-570882,CdI2,2.417399999999999
mp-570995,TiHg6As4Cl7,0.0
mp-571006,YbP5,0.20899999999999902
mp-571037,CdI2,2.4173
mp-571091,CdI2,2.4211
mp-571136,CdI2,2.4293
mp-571154,Sr11Al4Sn3,0.0
mp-571197,CdI2,2.4217
mp-571514,CdI2,2.4225
mp-571519,CdI2,2.4175
mp-571535,CdI2,2.4194
mp-571538,CdI2,2.3663
mp-571539,CdI2,2.4222
mp-571559,CdI2,2.3719
mp-571568,CdI2,2.4195
mp-571569,CdI2,2.3792
mp-571578,CdI2,2.3723
mp-571583,CdI2,2.377
mp-571593,CdI2,2.387
mp-571605,CdI2,2.3857
mp-571607,CdI2,2.3709
mp-571646,CdI2,2.3721
mp-572970,WSCl4,1.9731
mp-573425,Y8Co5,0.0
mp-579224,P4S9,2.7138
mp-580202,PbI2,2.3943
mp-581396,Rb6U5V2O23,1.7514999999999992
mp-581635,Cs3Te17Mo15,0.0
mp-607080,NdCu9Sn4,0.0
mp-619461,WO3,1.3712
mp-624214,Cs3Bi2I9,2.3446
mp-624769,P2WO8,2.5398
mp-632810,Pr3Ga10Ni,0.0
mp-6358,NaTiPO5,3.0717
mp-638650,Pr7FeI12,0.0
mp-639150,BaIn4Ir,0.0
mp-640118,CeZn3,0.0
mp-641191,U2Tl2Mo3O16,2.3209
mp-641945,Tb2Sb5,0.0
mp-642938,RbCr4BiO14,2.2292
mp-643651,Rb3ZnH5,3.3641
mp-646295,La8Al4I7,0.0
mp-653120,Mn(GaTe2)2,0.0
mp-6606,SrYSi4N7,2.7597
mp-667,Tl2S,0.588599999999999
mp-669521,Nb3Te4ClO15,2.3494
mp-674420,Li2NiO3,1.3798
mp-674940,La12Au3I13,0.0
mp-675120,Cu2SiTe3,0.168299999999999
mp-675438,Li2UBr6,0.15199999999999902
mp-680226,Ba(GaO2)2,3.0273
mp-680400,K3Ta2S11,1.676499999999999
mp-680674,Cs3Bi2Br9,2.5966
mp-685174,In2Br3,2.3003
mp-686139,Na19Zr11S30,0.0
mp-721365,VH10SO10,3.0614
mp-752852,BaTi8O16,0.0
mp-754228,Li4Ni3SbO8,0.0
mp-754745,Na2SnO3,2.4747
mp-755376,Er2TeO6,3.033
mp-7557,Nb5SiSn2,0.0
mp-756451,CaPbI4,2.8881
mp-756943,LiVNiO4,2.5579
mp-757266,BaTi7O14,0.0
mp-757695,Na5(WO3)14,0.0
mp-758022,LiCoPO4,3.2239
mp-759591,Sr20V15O49,0.0
mp-7597,NbSe2,0.0
mp-760121,Bi12Rh12O41,0.0
mp-760888,V4OF11,1.5669
mp-7609,SbOF,3.3541
mp-764496,Na14Ni2O9,1.3427
mp-770531,MnP2O7,0.853599999999999
mp-773423,Li2V3WO8,1.7313
mp-773500,LiMnCuO4,0.0
mp-774760,Li2Ti3CrO8,0.0
mp-775438,V2OF5,1.5533000000000001
mp-775597,Li3Cr2(PO4)3,3.180599999999999
mp-775866,Zr2N2O,1.789899999999999
mp-779104,Rb4PbO4,1.6016
mp-779365,V2OF5,1.5857999999999999
mp-779739,Hf2N2O,2.0925
mp-779974,Hf2N2O,2.1572
mp-8159,TlCu4S3,0.0
mp-862339,Sc2GaAg,0.0
mp-862599,LiErAu2,0.0
mp-865100,NaInHg2,0.0
mp-865604,Li5Mg,0.0
mp-867873,LiTm2Al,0.0
mp-8974,Ba3Dy4O9,3.3616
mp-971739,ZnCuPt2,0.0
mp-972062,YbTmHg2,0.0
mp-972117,SrTeO3,3.6197
mp-972572,Sm2PdRh,0.0
mp-973571,Lu,0.0
mp-975272,Hg,0.09339999999999901
mp-976976,MgPd5,0.0
mp-978809,SmAs2Au,0.0
mp-980387,DyYIr2,0.0
mp-981381,Tm2TlHg,0.0
mvc-11360,BiOF,2.6764
mvc-14226,ZnWF5,0.0
mvc-6213,Ca3Fe3(AsO4)4,2.3035
mvc-6638,CaCuP2O7,0.38720000000000004
mvc-8960,CaLa(FeO3)2,0.0
mp-1018121,TiPd2,0.0
mp-1018809,MoS2,1.3361
mp-1019255,SmTlCd,0.0
mp-1019578,Ca5(SiN3)2,2.500400000000001
mp-1024070,Na4Zn3S5,1.910699999999999
mp-1025218,SiPt5Pb,0.0
mp-1057015,PbS,1.037199999999999
mp-1062935,LaHg2,0.0
mp-1071028,LaAsIr,0.0
mp-1072051,TbB2Rh3,0.0
mp-1078391,CaZn(CO3)2,3.963899999999999
mp-1079007,Ce3Si2,0.0
mp-1080058,KIO3,2.8548
mp-1080603,Fe7Co,0.0
mp-1080828,KCuF3,0.0
mp-1094063,Sr12Al14O33,1.6048
mp-1094673,LiMg,0.0
mp-1095071,Ce(GaPd)2,0.0
mp-1095155,Sr2NiIrO6,0.0
mp-1095234,DyNbO4,3.6771000000000003
mp-1095637,PrP2,0.0
mp-1096861,Cd,0.0
mp-1101587,Li7V8(PO4)12,0.9
mp-1101682,Na5SbO5,1.6413
mp-1102101,ScCoSn,0.0
mp-1102847,Tm5S7,0.0
mp-1103053,Er3(CuSn)4,0.0
mp-1104100,Nd3Al11,0.0
mp-1104210,Ho3Ga9Pd2,0.0
mp-1104453,Ba2Cd2As3,0.0142
mp-1104657,Eu(InSe2)2,0.0
mp-1105460,Tb5(MoO6)2,0.0
mp-1106039,SmAs2Au,0.0
mp-1111965,Cs2RbIrF6,2.5533
mp-1112229,K2LuCuCl6,2.5016
mp-1112661,Cs2NaBiBr6,3.194
mp-11473,TlHg,0.0
mp-1159,Zr2Fe,0.0
mp-1173638,Sr10Cu(RuO5)4,0.0
mp-1180828,K4Eu(PS4)2,0.0
mp-1181234,In10(Pb2S7)3,1.1799
mp-1181507,Dy5BiAu2,0.0
mp-1181702,Cs3H(SeO4)2,3.4898
mp-1182608,Ce5Al2Ru3,0.0
mp-1183542,Cd,0.0
mp-1183654,Cd3Pt,0.0
mp-1183713,CeH3,0.0
mp-1183779,DyRh2Pb,0.0
mp-1184303,ErLuPd2,0.0
mp-1184464,Eu2ZnIn,0.0
mp-1185381,LiIn2Ni,0.0
mp-1185434,LiSnPt2,0.0
mp-1185619,MgZn2Rh,0.0
mp-1185760,Mg2HgAu,0.0
mp-1185787,Mg3Pb,0.0
mp-1185836,MgAg3,0.0
mp-1186158,NaIn3,0.0
mp-1186168,NaGdTl2,0.0
mp-1186534,PmAs3,0.0
mp-1186539,PmAg3,0.0
mp-1186654,PmTmMg2,0.0
mp-1186776,SrTl3,0.0
mp-1186941,Sc2CuPd,0.0
mp-1187124,Sr2TlPb,0.0
mp-1187676,TmMg2,0.0
mp-1187792,Tl2S,1.0166
mp-1188211,U2Si5Ru3,0.0
mp-1188660,Ba2LuIrO6,0.0
mp-1189329,Y3Co,0.0
mp-1189433,La5Sn3C,0.0
mp-1189835,Er3Pt,0.0
mp-1191014,Ce3NiGe2,0.0
mp-1191935,RbVOF3,2.7684
mp-1191979,RbTlF4,2.7449
mp-1192367,CsHo2Cu3Se5,1.387299999999999
mp-1192772,NaCdPO4,2.9268
mp-1192774,Hf9Re4S,0.0
mp-1193073,Ta4Fe2N,0.0
mp-1193142,Er2PbS4,2.256999999999999
mp-1193393,Er6Mn23,0.0
mp-1194786,Rb3Bi2I9,2.369399999999999
mp-1195166,Ta7BiO19,3.0816
mp-1195603,Li2MnSnS4,1.1045
mp-1196069,Nd6Al43W4,0.0
mp-1196235,Sm2USe5,0.034399999999999
mp-1196259,Sb(WBr3)5,1.0793
mp-1196304,NiTe6O13,2.979599999999999
mp-1196485,Sm3InS6,0.966499999999999
mp-1197032,Ag7PS6,0.9116000000000001
mp-1197485,Bi2W2O9,1.9756
mp-1197619,La4(DyS2)11,0.0
mp-1197761,KV2PO8,2.2428
mp-1198913,RbYb(PO3)4,0.009899999999999002
mp-1200597,Pr4In8Ni7,0.0
mp-1200600,U(H2O3)2,2.0792
mp-1201561,Sc57Ir13,0.019599999999999
mp-1201895,Er3Ni19B10,0.0
mp-1202251,HC2N3,2.4015
mp-1202841,U2B6Os,0.0
mp-1203528,K4BaV6O18,3.014599999999999
mp-1204192,Ba2V2Te2O11,3.2904
mp-1204207,Nb10Ge7,0.0
mp-1204517,Er2Fe14Si3,0.0
mp-1205454,Hf2InNi2,0.0
mp-1207004,HfPd2,0.0
mp-1207396,Zr2FeB2Ru5,0.0
mp-1207516,ZrTe7SeCl6,1.031599999999999
mp-1207543,Zn10Ge(B4Rh9)2,0.0
mp-1208126,Tm12Al7Si,0.0
mp-1208225,TiBi6(PO8)2,2.589899999999999
mp-1208555,Tb2(Al3Pd)3,0.0
mp-1209252,ReF6,0.0
mp-1209424,Rb2Hg3(GeS4)2,1.7793
mp-1209801,Pr3Ge5,0.0
mp-1209865,NbSeBr,0.0
mp-1210300,PrZr6(PO4)9,3.7127
mp-1210938,SmIn2Pd,0.0
mp-1212353,Ho6Al43Mo4,0.029999999999999003
mp-1212997,DyCu5Sn,0.0
mp-1213066,ErNiPb,0.0
mp-1213224,ErCu5Sn,0.0
mp-1215138,Cd3Fe2(GeO4)3,1.9028
mp-1215245,ZrTi(NiH3)2,0.0
mp-1215544,ZnCr4CdSe8,0.31519999999999904
mp-1215572,YbSc(BO3)2,0.0
mp-1215710,Yb4Pt3Au,0.0
mp-1215766,Zn2Ag2(MoO4)3,2.2113
mp-1215896,YPaO4,2.6041
mp-1216099,Y3Sn4BiO14,2.989
mp-1216166,Y10(SiGe)3,0.0
mp-1216398,VCrB2,0.0
mp-1216436,V6GaGe,0.0
mp-1216618,Tm5S7,0.0
mp-1216830,U2Be25Cu,0.0
mp-1217095,Ti3B4Mo,0.0
mp-1217429,Te16Rh9,0.0
mp-1217447,Te10Rh7,0.0
mp-1217552,Ti8Cr3(B4Ru9)2,0.0
mp-1217556,TbErTe2,0.0
mp-1218440,Sr3Fe2TeO9,1.3716
mp-1218493,Sr6Ti3FeO14,0.0
mp-1218641,Sr7Mn4O15,1.460899999999999
mp-1218679,SrCr9Ga3O19,1.9692
mp-1218852,Sr2CaSn5,0.0
mp-1219021,Sn7Ir2Os,0.0
mp-1219596,Rb5Bi4,0.0
mp-1219697,Rb3Ag9(SbS3)4,1.6422999999999992
mp-1219753,PrNdSb4,0.0
mp-1219940,Pd4W,0.0
mp-1220145,Pb12BrCl7O8,2.3612
mp-1220405,Nd2Fe3CoSi4,0.0
mp-1220806,Nb5Ni41B12,0.0
mp-1221078,NaEu(MoO4)2,0.0
mp-1221127,NaU4V3O20,1.8673000000000002
mp-1221162,Nb19Fe20,0.0
mp-1221178,Na7Sn12,0.3226
mp-1221421,Na(Nb3S4)2,0.0
mp-1221997,MgTi4FeO10,1.756
mp-1222229,Mg3Si9B36C,1.041399999999999
mp-1222500,Li3Sn11Pd4,0.0
mp-1222650,Li2MgAu,0.0
mp-1222784,Lu5B4Rh15,0.0
mp-1222844,LaPr3Al4O12,3.8834
mp-1223200,La6TaGa11O28,3.4673
mp-1223319,Li3U7(AsO7)5,1.7634
mp-1223400,KNbCl6,2.2532
mp-1223460,KSnAuS3,1.6528
mp-1223518,KBa2(BiO3)3,0.0
mp-1224656,La5Ga4SnSb10,0.0
mp-1225231,Gd2VFeO6,1.6148
mp-1225310,Dy2Al3Fe,0.0
mp-1225364,Eu2Ga7Ag,0.0
mp-1225660,Dy3(Ga2Cu)2,0.0
mp-1225900,Er6Ga17Pd5,0.0
mp-1227290,BiSb,0.10559999999999901
mp-1227403,Bi(SbTe2)3,0.11370000000000001
mp-1227685,Ca2Zn3Ag,0.0
mp-1227942,BaGaGe,0.0
mp-1227995,BaIn3Pt,0.0
mp-1228041,AlSiNi6,0.0
mp-1228043,AlSiNi2,0.0
mp-1228269,Ba4Bi(PbO4)3,0.0
mp-1228723,Ba10Br4N5Cl,1.105099999999999
mp-1228778,Ca2Zr5Ti2O16,3.029399999999999
mp-1228847,AlVCrC,0.0
mp-1228926,AlIn(AgSe2)2,1.120299999999999
mp-1228935,AlIn(AgS2)2,1.0686
mp-1229218,Ag6Hg(P10I)2,0.9969000000000001
mp-1232410,Dy6Al43Mo4,0.0383
mp-1238811,CsPb2Br5,3.096599999999999
mp-1276507,Nb2Co4O9,2.0764
mp-13020,Ti5CuSb2,0.0
mp-1315626,SrLa2(CoO3)3,0.868699999999999
mp-13211,Ag2Te2O7,0.0
mp-13450,HfSb,0.0
mp-14326,Tm11(Ni10C)6,0.0
mp-14334,K2RbPdF5,2.2422
mp-14411,K4GeO4,2.7735000000000003
mp-14455,Cu4Ag(AsO4)3,0.0
mp-15315,Ca4Ti3O10,2.4382
mp-15317,Rb2NaHoF6,6.481899999999999
mp-1567940,MgNiP2O7,3.5018000000000002
mp-1568591,MgMnP2O7,3.730299999999999
mp-15706,LuB2C,0.0
mp-1574470,Mg2Nb2FeO8,2.4639
mp-1579778,Ca3Co2O7,0.0354
mp-1643003,SrCo(GeO3)2,2.2382
mp-16482,TiAlAu2,0.0
mp-169,C,1.7730000000000001
mp-17281,Cu2PO4,0.0
mp-17339,Ba5Ho8Mn4O21,2.0882
mp-18345,La5Si4,0.0
mp-18640,LiTi2(PO4)3,2.4407
mp-19368,Sr2V2O7,3.3868
mp-19843,CeAlO3,0.0
mp-20055,NpSb,0.0
mp-20882,CeBO3,0.110599999999999
mp-20972,YbIn5Co,0.0
mp-21596,Ba3Ge4,0.0
mp-21727,CuGe5Pb3O14,0.688099999999999
mp-22131,SmGa4Co,0.0
mp-22196,Dy2Cu(GeO3)4,0.7187
mp-22774,Fe3BO6,1.2056
mp-23099,Cs2Pd(IBr2)2,0.706199999999999
mp-2321,Tb3Ge5,0.0
mp-2323,BeCu,0.0
mp-23482,BaBiO3,0.079499999999999
mp-23586,Hg6S4Br3Cl,1.559499999999999
mp-23597,Sr4Mn3(ClO4)2,0.0
mp-24090,BaH4(IO)2,3.6603
mp-24452,CaP2H6O7,6.4567
mp-2461,CaGa4,0.0
mp-26079,Li3Cr2(PO4)3,3.1825
mp-27354,Cs3HgCl5,2.9583
mp-27374,NaAsSe2,1.2044000000000001
mp-27386,TlHg5Cl11,2.7263
mp-27594,As4(Pb3S5)3,1.7005
mp-2764,LaNi3,0.0
mp-2783,Ta2Si,0.0
mp-28,Ce,0.0
mp-28545,RbLiO,2.2574
mp-28640,K2FeF5,3.6824
mp-29200,KNO2,2.5629
mp-29538,BaGdCl5,1.9502000000000002
mp-29636,KMnBr3,1.785899999999999
mp-29647,SmSb2,0.0
mp-30181,PrAl3Ni2,0.0
mp-30401,KAu2,0.0
mp-30703,Hf11Ga10,0.0
mp-30769,Li13Sn5,0.0
mp-31011,Y2Si2Rh,0.0
mp-31051,CeSi4Ni9,0.0
mp-31190,Lu2Ga3Co,0.0
mp-34472,Na(Nd2Se3)4,0.0
mp-4446,Sr3(GaO3)2,3.5262000000000002
mp-4699,NaTaO3,2.3890000000000002
mp-504,CuS,0.0
mp-510377,EuBRh3,0.0
mp-531533,YbZr3F15,0.010899999999999
mp-541868,Te3MoCl16,0.051499999999999005
mp-542143,RbZn4(BO3)3,2.798
mp-542465,Pr5Si4,0.0
mp-542860,V2Cu2O7,0.0
mp-553964,WO3,1.3406
mp-553974,Ba7Fe6CuF34,0.8038000000000001
mp-554004,ZnS,2.0147
mp-554116,BaPb2BrF5,3.7525
mp-554343,K2CuSbS3,1.2713
mp-554410,Ba2LaRuO6,0.23800000000000002
mp-554441,NaTi2Ga5O12,2.742099999999999
mp-554627,Cu6PS5Br,1.1004
mp-554713,ZnS,1.9888000000000001
mp-554767,Mg2V2O7,3.1296
mp-554889,ZnS,2.035
mp-554917,LiSn2(PO4)3,3.5717
mp-555279,BSBr,3.6292
mp-555628,ZnS,2.016499999999999
mp-555692,Rb2CO3,3.264599999999999
mp-556231,In2GaBiS6,1.8707
mp-556249,Er2WO6,3.203799999999999
mp-556708,KUP3O11,2.2712
mp-556775,ZnS,2.0398
mp-556815,ZnS,2.0421
mp-556989,ZnS,2.0038
mp-557794,Yb3SiO,0.0
mp-558469,Ag2PS3,1.7782
mp-558658,Y2C(NO)2,3.9572000000000003
mp-558765,Li2Ni(WO4)2,3.3662
mp-559832,Hg3(SBr)2,1.6179000000000001
mp-559937,UTe3Pb2O11,1.824399999999999
mp-559970,Cr3(P2O7)2,1.3921000000000001
mp-560007,Ba2Cu7(AsO4)6,0.2892
mp-560382,KMnF3,2.6774
mp-560383,La4Ti9O24,2.8512
mp-560582,KMoAsO6,2.7567999999999993
mp-560729,K3Zr4Ag2F23,0.6980000000000001
mp-561150,Yb(ClO4)3,0.0
mp-562216,Ba2CoSi2O7,1.7828
mp-562420,Cs3ClO,1.618399999999999
mp-567181,ZrRh,0.0
mp-567296,CdI2,2.3808
mp-567442,CdI2,2.405399999999999
mp-567514,Ce9Sb16Cl3,0.0
mp-567646,Ba9Sm6Cl34,0.014999999999999002
mp-568207,NdMg2Ni9,0.0
mp-568240,Zn3As2,0.179899999999999
mp-568360,Ce13Zn58,0.0
mp-568552,LuNi4Sn,0.0
mp-569082,Sm(Sb3Os)4,0.0
mp-569360,Hg,0.22810000000000002
mp-569509,Er2Co7,0.0
mp-569764,RbCu2I3,2.0766
mp-569877,Dy2InGe2,0.0
mp-569981,DyAl3,0.0
mp-570505,Ca3(AlN2)2,2.2617000000000003
mp-570644,Ba14Na21CaN6,0.0
mp-571193,MnP4,0.5601
mp-571621,Ba3Na2(CN2)4,3.3901
mp-581781,La23Mg4Ni7,0.0
mp-582719,Ta6Ni16Ge7,0.0
mp-619928,Zr(Se2Cl3)2,1.3186
mp-622755,In10(Pb2S7)3,1.178599999999999
mp-624355,Ce14Si11Ni6,0.0
mp-625184,Sr(HO)2,3.973
mp-626024,H2SeO4,3.3735
mp-627557,CdI2,2.3697
mp-6285,BaNd2Ti3O10,2.2478
mp-6287,Cu6Hg3(AsS3)4,0.5413
mp-630883,Ni6Mo2P3,0.0
mp-630976,In3Ir,0.0
mp-636279,EuPd3,0.0
mp-636598,Rb2ZnBr4,3.676999999999999
mp-638005,SeO2,3.3095
mp-644236,Cs2MgH4,3.8209
mp-6443,Ba3CaRu2O9,0.0
mp-646548,KEuAsS3,0.5222
mp-6480,Mn3Al2(SiO4)3,3.5564
mp-651882,Yb(PO3)3,0.0
mp-652036,GdFe5P3,0.0
mp-652282,P(W3O10)2,0.0
mp-6613,Ba2YTaO6,3.361799999999999
mp-6625,LaAgSO,1.3669
mp-669326,CdI2,2.3857
mp-669340,CdI2,2.3451
mp-669360,CdI2,2.354899999999999
mp-669445,Cu2Bi8Pb6S19,0.523
mp-672196,La4B2CI5,0.0
mp-675069,LiNbO3,3.0231
mp-675140,K(WO3)6,0.0
mp-675244,Yb(NdS2)2,2.048399999999999
mp-680046,CdI2,2.3536
mp-680047,CdI2,2.3548
mp-680115,CdI2,2.3783
mp-680116,CdI2,2.3523
mp-680118,CdI2,2.381399999999999
mp-680119,CdI2,2.3832
mp-680120,CdI2,2.3851
mp-680133,CdI2,2.3558
mp-680152,CdI2,2.382799999999999
mp-680153,CdI2,2.3594
mp-680163,CdI2,2.3597
mp-680172,CdI2,2.3544
mp-680530,BiPtPb3,0.0
mp-680677,Sn3Ru2,0.0
mp-680679,K2Ho4Cu4S9,0.9266999999999991
mp-684029,CdI2,2.3629
mp-684731,Ti13S24,0.0
mp-684923,Cu25Se26,0.0
mp-690760,TiH,0.0
mp-695995,ReSbH4O7,2.834
mp-697676,H2Pb4SO8,2.8007
mp-698163,BaPHO4,5.3763
mp-704114,VBi(PbO3)2,2.6291
mp-704546,RbNaCr2O7,2.6639
mp-705271,Eu(Ni5P3)2,0.0
mp-705347,Co6P7O24,0.0
mp-705479,SnH6Cl4O3,3.224599999999999
mp-705844,Mo5(O4F)3,0.0
mp-706249,Rb(WO3)4,0.0
mp-723064,Ti3(BiO3)4,2.4321
mp-735596,K4Mo3H4O17,2.468
mp-740759,Yb19(Mg4H27)2,2.7756
mp-752406,Rb3TmO3,2.1718
mp-752515,YTa3O9,3.2141
mp-753151,LiVCoO4,1.9385000000000001
mp-753822,La2Se2O,2.153
mp-755181,V4O5F7,1.5037
mp-755512,Sm3NbO7,2.8378
mp-755583,LuVO3,1.5773000000000001
mp-756220,V4OF11,1.5045000000000002
mp-756311,LiFeSnO4,1.632699999999999
mp-756362,LiCrO2,3.0611
mp-757032,Cs3ErO3,2.2302
mp-757208,Li3V2CrO6,1.892799999999999
mp-758454,LiP4WO13,2.5366
mp-761825,LiSb(TeO4)3,1.394599999999999
mp-764470,V4OF11,1.546199999999999
mp-764606,V4OF11,1.5875
mp-764900,VOF,1.3161
mp-766006,In15SnO24,0.0
mp-769368,Rb4SnO3,2.0456
mp-769454,Li9(NiO2)10,0.356799999999999
mp-770416,Dy2WO6,3.1863
mp-770431,Ho2(SeO4)3,3.7327
mp-770619,Li24Mn11CrO36,1.2342
mp-771843,Mn3(PO4)2,2.8782
mp-7719,NaTm(SO4)2,6.1164
mp-772572,Rb6Co2O7,1.138
mp-773039,Li2Ti6Zn3O16,2.8371
mp-773061,Ba6Ti7Nb9O42,0.0
mp-774715,Ba4LiNb3O12,2.4458
mp-775799,Hf2N2O,2.1399
mp-778379,Tb2WO6,3.2092
mp-779156,CdSeO4,1.945
mp-779609,V4OF11,1.4938
mp-779837,Hf2N2O,2.0673
mp-780869,Tm2WO6,3.215099999999999
mp-849362,Na14Co2O9,0.8922999999999991
mp-851257,V2OF5,1.5634000000000001
mp-861725,LiTl2Rh,0.0
mp-864665,Nd2Si3Rh,0.0
mp-865117,NaErTl2,0.0
mp-865624,Li2HoTl,0.0
mp-866097,CuH6BrN2,2.1545
mp-866295,DyLuMg2,0.0
mp-867228,K2Mn(PSe3)2,0.7664000000000001
mp-867903,LiLuAu2,0.0
mp-8870,LiMgAsO4,3.454399999999999
mp-8895,Ca2B4Rh5,0.0
mp-902,BaZn,0.0
mp-9080,CsPrS2,2.259
mp-9081,CsNdS2,2.2505
mp-9561,VS2,0.0