material_id,pretty_formula,band_gap
mp-1227587,CeThUS5,0.0
mp-1227589,Ca10P6O25,3.0715
mp-1228088,Ba4SrHf5O15,3.5543
mp-1228567,Ba2NaMn3F11,3.6923999999999992
mp-1229181,Ag6Au2Se3S,0.0367
mp-1233,Cu6Sn5,0.0
mp-1245625,Mg(ZnN)2,0.16409999999999902
mp-12466,Fe(PdSe)2,0.0
mp-12602,PrZn5,0.0
mp-1272971,Sr2ZrVO6,1.2248
mp-1277156,La2ZnCoO6,0.578199999999999
mp-1281596,VOF2,2.2758000000000003
mp-1282714,AlV2O4,0.631799999999999
mp-1288227,LiV2O4,0.6926000000000001
mp-1298732,Li2Ni3BiO8,0.648
mp-1313379,TaMnO4,1.2455
mp-1339,NbIr3,0.0
mp-1362593,Li2Mn3TeO8,0.007699999999999
mp-14052,Ca3In2(SiO4)3,3.668
mp-14504,Hf6Cr5Si7,0.0
mp-14648,NaZnPO4,3.854
mp-15093,Zr2P2WO12,3.7457000000000003
mp-1643334,BaSr4(FeO3)5,0.0
mp-1646388,LiNi2O3,0.09719999999999901
mp-1662148,Ta2Zn2NiO8,3.439699999999999
mp-16652,Tb2MgPd2,0.0
mp-17113,Sm2Ru2O7,0.0
mp-17551,SrNiP2O7,3.7059
mp-18032,Nb5Ga4,0.0
mp-18584,Ho2SiSeO4,2.9334000000000002
mp-18701,Ba3YRu2O9,0.0
mp-1874,NbS2,0.0
mp-18890,CaFe(SiO3)2,3.7056999999999993
mp-18954,ScMnO3,0.0
mp-19090,MnTeMoO6,1.742899999999999
mp-19436,La7Mo7O30,1.1666
mp-19489,SmCo(BO2)5,3.1122
mp-19733,Ce2In,0.0
mp-20228,MnGaNi2,0.0
mp-20771,Eu(ZnGe)2,0.0
mp-21218,La(GePt)2,0.0
mp-21233,Ti3InN,0.0
mp-2127,Pr3Te4,0.0
mp-21354,EuCuSF,0.0
mp-21453,PrSnPt,0.0
mp-21500,Yb2InCu2,0.0
mp-21559,Zr2Te,0.0
mp-21934,In9Pb4S17,0.0
mp-22288,BaCe2CoS5,0.0
mp-22428,SrCeO3,2.3064
mp-22565,MnSiRh,0.0
mp-22570,Mg5In2,0.0
mp-22720,RbSr2Nb3O10,1.495
mp-23111,Mg2VBiO6,3.1906
mp-23160,ThBr4,3.0052
mp-23187,La4Bi3,0.0
mp-23206,BiPd,0.0
mp-23215,ThCl4,3.7504
mp-25234,CoO2,0.0
mp-26039,Li3Mn2(PO4)3,1.1754
mp-26956,V(PO3)4,1.6464
mp-2729,Sn7Os3,0.0
mp-27732,W10O29,0.0
mp-27916,AgBiSe2,0.24070000000000003
mp-2831,FePd,0.0
mp-28393,P3Se4I,1.6464999999999992
mp-28658,Na2CdCl4,3.6404
mp-28760,KRbS,2.221899999999999
mp-28878,RbTe6,0.0
mp-29228,CsSrN9,3.8236
mp-29245,Cd2P3Br,1.2448000000000001
mp-29715,TeWBr9,0.0
mp-30187,Ga2Te4O11,3.5265999999999993
mp-30685,ZrGa3,0.0
mp-30848,USnPt,0.0
mp-30885,YZn5,0.0
mp-31100,CeIr3,0.0
mp-31284,NaSn5,0.0
mp-3147,Er(SiAu)2,0.0
mp-32686,CoO2,0.0
mp-34688,TiO2,1.9758
mp-3626,SrZrO3,3.4208
mp-504863,KNa2FeO3,0.6899000000000001
mp-505222,CdInBr3,2.257799999999999
mp-510305,MnVSbO6,0.6919999999999991
mp-540553,Te7(OF5)6,2.3841
mp-541007,BaDy2MnO5,1.690999999999999
mp-542106,SbPd2,0.0
mp-542694,HI3O8,2.5279
mp-542803,V6Zn3(FeO6)4,1.460799999999999
mp-546790,LaCuTeO,1.1839
mp-554601,RbCuF3,0.0
mp-554648,Ag5IO6,0.022299999999999
mp-555293,NbS2,0.0
mp-555641,Nb2Te4Cl10O,1.2099
mp-555797,Zn4As2O9,1.6141
mp-555967,TaP4S4Cl5,1.8707
mp-556004,Ba3In2Br2O5,1.3436
mp-556225,Ag2S,1.097
mp-5564,Pr(AgGe)2,0.0
mp-556822,Na2CuP2O7,0.649899999999999
mp-5571,Ho2(Ni5B3)3,0.0
mp-557964,Li9S3N,2.4444
mp-558688,Ba2Sc2B4O11,3.346
mp-558870,P3RuO9,0.0
mp-559696,Rb3Mo4(P2O11)2,0.0
mp-559854,La8Ru4O21,0.0
mp-559964,Ti6O11,0.0
mp-560569,KPrPdO3,0.6648000000000001
mp-560802,Te7(OF5)6,2.3684
mp-561303,NaSb(PS3)2,2.156099999999999
mp-561490,PdSeO4,1.2142
mp-567630,Pr,0.0
mp-568158,Nd2Fe23B3,0.0
mp-568526,SrHg2,0.0
mp-568570,CsSnI3,0.6097
mp-568730,Ge4Te7As2,0.39529999999999904
mp-569333,Li2AgBi,0.0
mp-569605,Yb2Tl,0.0
mp-570060,Ce6B2(CBr)3,0.0
mp-570293,Nb5Ga3,0.0
mp-570428,Sc3In,0.0
mp-570690,SiC,1.9611
mp-572487,CsUV3O11,2.1691
mp-573608,CdI2,2.3836999999999993
mp-573651,Li22Pb5,0.0
mp-573677,Ba2Li3TaN4,2.4381999999999993
mp-579919,Cs2ZnN12,3.7845
mp-582076,CsW3Br3Cl4,2.990199999999999
mp-606949,C,0.0006000000000000001
mp-616218,Cd(In2I3)2,1.538199999999999
mp-6166,PrCuSO,1.6440000000000001
mp-618813,Gd2Br3,0.1711
mp-619475,RbFeF4,2.887299999999999
mp-619905,Ti9Se2,0.0
mp-630376,Sb6Pb6S17,0.780999999999999
mp-638086,K3Th2Cu3S7,1.431
mp-640053,Rb2CuCl3,2.359
mp-641101,K34(Zn4In17)5,0.0
mp-641565,Er5Sb3,0.0
mp-642322,Sr11In7,0.0
mp-642736,K3H5Pd,2.9628
mp-643712,Rb3MgH5,3.069899999999999
mp-645302,Al14Co5Si2,0.0
mp-6457,La2MgTiO6,3.111799999999999
mp-645953,Fe5Te6(ClO9)2,0.021899999999999
mp-647727,Re2N2ClF9,2.0294
mp-651075,Nb2Ni4O9,2.9285
mp-652548,MgMn3(CuO4)2,0.0022999999999990003
mp-676117,Li2CuGe,0.0
mp-676524,Tb7(CuTe4)3,0.38460000000000005
mp-680210,Ba3WN4,1.5486
mp-680220,Sr(Ni5P3)2,0.0
mp-680646,NiSn,0.0
mp-680680,Sr4Ru3O10,0.0
mp-680850,Ti8S3,0.0
mp-6809,CaSiSnO5,3.2434
mp-683998,CuBi(PSe3)2,0.6152000000000001
mp-684014,Sn14Sb11Pt8,0.0
mp-686174,Ti24Ga5S48,0.0
mp-694974,Li7Mn16O32,0.2918
mp-704238,Gd2Mo5O18,3.1649
mp-705713,Bi14WO24,2.5461
mp-720198,CaNdMn2O6,0.0
mp-752407,Dy2Ge2O7,3.8173999999999992
mp-752656,BaLa2O4,3.1677
mp-753629,Zr2O,0.0
mp-754827,Tm2TeO2,0.41579999999999906
mp-755625,LiVNiO4,3.1863
mp-755629,LiVF4,2.0607
mp-755675,Li4AlCr3O8,3.1284
mp-756235,Ba3SrI8,3.234
mp-756366,LiMnNiO4,0.196
mp-756405,Li4Fe3CoO8,1.6539000000000001
mp-757580,LiP4WO12,4.1469
mp-757853,Na4Ti5O12,2.906799999999999
mp-758073,Re6Pb6O19,0.0
mp-758160,Co(IO3)2,2.5263
mp-759085,V4(OF3)3,1.3688
mp-759694,Mg2Ti7O15,0.0
mp-760060,Sb(SO4)2,0.0
mp-760188,Nb3O7F,2.2294
mp-760439,TaTiO4,0.0
mp-760773,LiCu2F7,0.0
mp-761472,Co2CuO4,0.0
mp-765834,Li6V2OF11,1.7513
mp-767609,LiVF5,2.218499999999999
mp-769473,Li13Ni9O22,0.0
mp-770592,Mn2PO5,0.5459
mp-772036,YTa7O19,3.1646
mp-772910,Bi3IO4,2.364099999999999
mp-773099,MnZn4O5,0.0027999999999990003
mp-774527,Na2Ti12O25,2.764199999999999
mp-778110,Li32Mn13Cr3O48,1.0415
mp-778473,Gd3SbO7,2.525899999999999
mp-779833,Hf2N2O,1.9970999999999992
mp-779898,Na6NiO4,1.290599999999999
mp-780623,V2O3F,0.8054000000000001
mp-8154,La2Ti2O7,3.0054
mp-8324,Dy2S2O,2.586
mp-849732,LiSb(TeO4)3,1.3328
mp-850062,LiNiO2,0.0
mp-851112,Ba9La5Br33,2.7671
mp-861657,Li2PrAl,0.0
mp-865298,TmZnPd2,0.0
mp-865307,Tm2CuIr,0.0
mp-865380,Tm2PdPt,0.0
mp-866197,Li2PrPb,0.0
mp-866604,Ce3AgGeS7,0.044500000000000005
mp-866605,Ce3SiAgS7,0.0239
mp-867202,Sr,0.0
mp-867839,Ta7BiO19,3.0334
mp-8956,Ho2S3,0.6120000000000001
mp-97,Pr,0.0
mp-971794,YMg3,0.0
mp-971920,TmMg3,0.0
mp-972275,Ti2ReRu,0.0
mp-972898,Sc2GaAu,0.0
mp-972935,ScZnNi2,0.0
mp-972981,K,0.0
mp-974035,Pb3I2(Cl2O3)2,3.2935
mp-974603,HgF2,0.39629999999999904
mp-974757,KBeH3,3.1035
mp-975639,Pr3Er,0.0
mp-976847,Ni3Sb,0.0
mp-977126,Li3Ag,0.0
mp-977590,NdInPd2,0.0
mp-978549,SmLuZn2,0.0
mp-978912,TbYIr2,0.0
mp-979934,YErHg2,0.0
mp-981208,YTmHg2,0.0
mp-981368,Zn2PdPt,0.0
mp-982366,Tb2S2O,2.5357000000000003
mp-984660,Dy2InHg,0.0
mp-989563,Rb2NaTlCl6,1.9723000000000002
mp-997182,C,0.0001
mvc-10143,CuReO4,1.1364
mvc-10625,BaCaVF7,2.3931
mvc-1238,MnZnP2O7,3.1471
mvc-15792,CaCuF5,0.0
mvc-1735,MgCu(PO3)4,0.19640000000000002
mp-1013726,Cd4SF6,1.8553000000000002
mp-1014168,CsPbBr3,1.8178
mp-1018102,ZrPd2,0.0
mp-1020107,LiCaAl3N4,3.0206
mp-1025629,Te6Mo2W,1.107199999999999
mp-1025649,Te6Mo2W,1.154799999999999
mp-1077023,TiCu2,0.0
mp-1078597,ZnCd3Se4,1.729099999999999
mp-1078631,SrBiS2F,1.1263
mp-1079113,Ba2SrUO6,2.2733
mp-1079603,BaCdPF,1.1489
mp-1080147,Ni3Sn,0.0
mp-1080495,ZrGaPt,0.0
mp-1080546,La(GePt)2,0.0
mp-1084805,YH3,0.0
mp-1084838,Y(GePt)2,0.0
mp-10857,Tm(BC)2,0.0
mp-1087501,NdGe2Rh,0.0
mp-1092278,Mn(BMo)2,0.0
mp-1094054,Sr2FeCoO6,0.0
mp-1094132,Lu5Ga3,0.0
mp-1094147,Na4Mn9O18,0.0
mp-1094936,Mg2Cd,0.0
mp-1095144,La2InNi2,0.0
mp-1095457,Nd2In8Co,0.0
mp-1101448,NbVO4,0.0
mp-1102246,LaSeCl,1.336
mp-1103795,Eu2Zn3Ge,0.0
mp-1103877,Nd3GaCo3,0.0
mp-1104141,Ga2PbSe4,1.761499999999999
mp-1104534,DyGa6,0.0
mp-1104639,YbGa6,0.0
mp-1104753,La3Pt2,0.0
mp-1106169,Zr5Ga3,0.0
mp-1112003,Cs2TlSbCl6,2.0339
mp-1113052,Cs2KCeCl6,0.35959999999999903
mp-1113556,Rb2YAgBr6,3.3533
mp-1113698,Rb2TbAgCl6,3.7497
mp-1114395,Rb2TlInBr6,2.1675
mp-1114404,KRb2IrF6,2.5943
mp-1114581,Rb2LiTlBr6,0.5512
mp-1114660,Rb2NaAsBr6,2.5867
mp-1114686,RbInF3,2.6641
mp-11224,Sr8Al7,0.0
mp-1133284,Tl3SiF7,3.5791
mp-1147554,LiLaSO,3.1807
mp-1147650,KCuH3,0.0
mp-11513,NbNi3,0.0
mp-1176488,Mn2HgO4,0.568499999999999
mp-1177127,Li7Mn4(P2O7)4,0.0094
mp-1180838,Na2VCoF7,2.3694
mp-1181047,Ho5SbAu2,0.0
mp-1181275,La11Sn10,0.0
mp-1181630,Er17(TeRu2)3,0.0
mp-1183205,Ag3Au,0.0
mp-1183381,Ba2ZnIn,0.0
mp-1183559,CaLuHg2,0.0
mp-1183608,Ca2ZnIn,0.0
mp-1183643,CdAu3,0.0
mp-1183886,Eu2MgCd,0.0
mp-1184056,Eu2InHg,0.0
mp-1184109,DyTmCu2,0.0
mp-1184111,Dy2MgCd,0.0
mp-1184670,Hf3Al,0.0
mp-1184740,HoErHg2,0.0
mp-1184997,KRbAu2,0.1902
mp-1185130,LaTmMg2,0.0
mp-1185292,LiAc2Sn,0.0
mp-1185307,LiAl2Cu,0.0
mp-1185375,LiLaAu2,0.0
mp-1185443,LiYbPb2,0.0
mp-1185479,Lu3Sc,0.0
mp-1185515,LuMg2Sc,0.0
mp-1185603,LaSmMg2,0.0
mp-1186218,Nb3Os,0.0
mp-1186262,Nd3Dy,0.0
mp-1186498,Pm3Cd,0.0
mp-1186522,Pm3Gd,0.0
mp-1186559,PmErAl2,0.0
mp-1186595,PmHoCu2,0.0
mp-1186887,RbNa2Bi,0.0
mp-1187079,Sr2CdHg,0.0
mp-1187105,Sr3Ca,0.0
mp-1187434,Ti2FeTc,0.0
mp-1187706,Y2CdHg,0.0
mp-1187720,Y2AgAu,0.0
mp-1187785,YbEuGa2,0.0
mp-1187845,YHoHg2,0.0
mp-1187860,YMg2,0.0
mp-1187880,YTm3,0.0
mp-1188122,Ba2ErInSe5,1.1854
mp-1188796,Sc4Ge6Ru7,0.0
mp-1192082,Sr3InNiO6,0.0
mp-1192314,HfBi2,0.0
mp-1192811,Er2ZnS4,2.3855
mp-1192910,Lu6Zn23,0.0
mp-1193841,Rb3(SO4)2,0.34700000000000003
mp-1194003,Hf9SiMo4,0.0
mp-1194181,Zr4Ni2N,0.0
mp-1194666,CsPSe6,1.7021000000000002
mp-1195468,NaHo(PO3)4,5.8416000000000015
mp-1195782,UP2S7,0.0
mp-1195976,U2Ta3Ge4,0.0
mp-1196249,Ti11Ni9Pt4,0.0
mp-1197017,Ba2Ge(Sb2S5)2,1.4017
mp-1197227,Dy3Ni19B10,0.0
mp-1198319,Ho3Ir2,0.0
mp-1198597,Pr2Ni22C3,0.0
mp-1199096,Ca3Al4CoO10,2.6595999999999993
mp-1200639,Bi2Se5Cl7,1.4358
mp-1201168,TbAu6,0.0
mp-1201691,MnTe6O13,2.4177
mp-1203792,Yb4Ga21Ni10,0.0
mp-1203872,Na2Cu2(B4O7)3,0.40830000000000005
mp-1204219,Dy3Ir2,0.0
mp-1204480,Tl2Ag3(PO4)3,0.344199999999999
mp-1205359,Ba2UCuO6,0.08609999999999901
mp-1205677,Sr2NbGaO6,3.2476
mp-1206625,Nd2Ge2Ru,0.0
mp-1206957,ErNiAs,0.0
mp-1207470,ZnAg2(PS3)2,1.7678
mp-1207654,Zr54Os17,0.0
mp-1207931,V3BO5,0.0
mp-1207962,Tm2MnC4,0.0
mp-1208047,TmAgS2,1.420399999999999
mp-1208908,Sm4PdO7,1.0895
mp-1209041,Si9Ni25,0.0
mp-1209361,RbEu(MoO4)2,0.087299999999999
mp-1209472,Rb2Zr(MoO4)3,3.574799999999999
mp-1209653,Pr3TiSb5,0.0
mp-1210250,Nb3Se5Br7,0.9691000000000001
mp-1210411,Nd23Mg4Ir7,0.0
mp-1210634,MgFeBO4,1.8677000000000001
mp-1212033,La23Mg4Pt7,0.0
mp-1213398,CsMo3I3Cl4,2.4383
mp-1213997,CaW6NCl18,0.0
mp-1214761,Ba(As3Ru)4,0.0
mp-1214839,Al3Bi(BO3)4,4.159899999999999
mp-1215438,Zn2CuNi,0.0
mp-1215449,YbZnIn,0.0
mp-1215593,ZnGeAsP,0.583699999999999
mp-1215842,ZnFe8Co3O16,1.5497
mp-1216105,YGa3NiGe,0.0
mp-1216459,VGa2FeCo4,0.0
mp-1216500,Zr2Mn12GaSn11,0.0
mp-1216602,Tl2Pd9Pb,0.0
mp-1216714,TiNbAlC,0.0
mp-1216979,TiCrAgS4,0.0
mp-1217062,TiNb2O7,1.9633
mp-1217178,Ti3FeS6,0.0
mp-1217422,TcRh,0.0
mp-1217604,TbEu4S5,0.0
mp-1217615,TbAgSn2,0.0
mp-1217743,Tb4Co3,0.0
mp-1217980,TaBe4Mo,0.0
mp-1218192,Ta3(InSe3)2,0.0
mp-1218200,SrNd2BeO5,3.8353
mp-1218481,Sr3PrMn4O12,0.0
mp-1218505,SrCa(RuO3)2,0.0
mp-1218541,Sr3CaSn16,0.0
mp-1218550,Sr4Nb5O15,0.0
mp-1218702,Sr2TaVO6,0.0
mp-1218797,Sr2NdMn3O9,0.0
mp-1218911,Sr10Mn(RuO5)4,0.0
mp-1219030,Sn4GeTe4Se,0.40640000000000004
mp-1219715,PrYAl6,0.0
mp-1219734,PtRh,0.0
mp-1220051,NdHoAl4,0.0
mp-1220117,NdUTe6,0.0
mp-1220540,Nd2FeNiO6,0.0
mp-1220728,NaLi(AsS2)2,1.5988
mp-1221199,Na4Eu2SnP4,0.0
mp-1221455,MoCl2O,0.0
mp-1221482,Na2(NbSe2)3,0.0
mp-1221734,Mn4Sb3As,0.0
mp-1221762,MnCd4O5,0.0
mp-1221799,Mn3Cu2NiO8,0.0
mp-1221819,Mn2SnSbPd4,0.0
mp-1222137,Mg3HgAu2,0.0
mp-1222152,Mg2ZnSb2,0.0
mp-1222321,LuGaAg,0.0
mp-1222424,Li3Tl2Cd,0.0
mp-1222443,Li4ZnCd3,0.0
mp-1222584,Li3Ag2,0.0
mp-1222696,Li5Mn5(SeO3)8,0.8085000000000001
mp-1222987,LaNi5H6,0.0
mp-1223100,La4Fe(NiO4)3,0.0
mp-1223375,La5Cu6S7O4,0.0
mp-1223445,KNb4Bi5O18,2.6455
mp-1223567,KBa2(FeAs)6,0.0
mp-1223639,K2MgCuF6,0.0
mp-1223667,K2BaSnTe4,1.1677
mp-1223776,In2AgSe3Cl,0.3296
mp-1223837,In2AsP,0.19280000000000003
mp-1223920,K3MgCu2F9,0.0
mp-1223974,Hg2IBr3,2.567999999999999
mp-1224131,K7Hg31,0.0
mp-1224271,HfTeSe,0.0
mp-1224480,Hf3ScGa12,0.0
mp-1224551,K4NaNb5O15,2.0384
mp-1224606,GdLuAl4,0.0
mp-1224722,K14P16Pd9O56,1.1907
mp-1224757,In4Bi3S10,0.9283999999999991
mp-1224871,Ga3GePt8,0.0
mp-1225250,Er2(AlNi)5,0.0
mp-1225609,Er2US3O2,0.0
mp-1225765,Er4Co3,0.0
mp-1226387,Cs12Sn2Bi6O,0.19790000000000002
mp-1226510,CeY2(AlPd)3,0.0
mp-1226759,CdIn2SnAu2,0.0
mp-1226821,CaAlGa,0.0
mp-1226930,Cr19S30,0.0
mp-1227041,CaNdAlO4,3.1978
mp-1227184,CaNd3Cr4O16,0.28489999999999904
mp-1227298,BiSbPd2,0.0
mp-1227336,BaSrTi2O6,1.7491
mp-1227379,Ce2NiSn4,0.0
mp-1227420,BaSrMn2O6,0.8391000000000001
mp-1227626,Ca2TbMn3O9,0.0
mp-1227637,CaEu2BeO5,0.0
mp-1227723,Eu4Zn51,0.0
mp-1228195,Ba7Nb4MoO20,2.664399999999999
mp-1228197,Ba3In2WO9,2.711299999999999
mp-1228229,Ba4SiGeS8,2.4345
mp-1228403,Ba2Ga7Ag,0.0
mp-1228429,Ba2Fe4AsP3,0.0
mp-1228822,AlV6Sn,0.0
mp-12368,SbS2NF6,2.6713
mp-1239267,NbCr3(AgS4)2,0.12809999999999902
mp-1245574,Ba2RuN2,0.079499999999999
mp-1247866,Ag2B8O13,2.9287
mp-1272384,Co2PO5,0.9742000000000001
mp-1277418,YFeO3,0.0
mp-1278392,NaNiO2,0.6496999999999991
mp-12863,Ba(AlSi)2,0.0
mp-1292349,AlV2O4,0.5729000000000001
mp-1303020,Li2Mn3TeO8,0.649
mp-1311459,Sr5Mn5O13,0.0
mp-1312784,Li4Ni3BiO8,0.44519999999999904
mp-1314406,Li2Mn3GaO8,0.7258999999999991
mp-13434,CaMgNi4,0.0
mp-1382,Ce3S4,0.0
mp-14374,Na3Rh(NO2)6,2.6501
mp-1569694,Na6NiO4,1.2597
mp-15803,Y2MgSe4,1.3006
mp-159,Nd,0.0
mp-16043,Mg(As2Rh3)2,0.0
mp-17560,Na2UO4,2.1382
mp-18042,SrTb2O4,3.985699999999999
mp-18316,Mg2Pd,0.0
mp-18819,Ni2P2O7,3.737
mp-19311,V2CoO6,2.0224
mp-19509,SrV10O15,0.9268999999999991
mp-19751,Ba2YbNbO6,0.0
mp-21078,Fe3Ge,0.0
mp-21464,CoReB,0.0
mp-21611,Na2InCuF7,0.10370000000000001
mp-21657,Tl5Se3,0.0
mp-22734,HfPbO3,2.716
mp-228,Te2Rh,0.0
mp-2280,CuSe2,0.0
mp-22808,Dy3(AgSn)4,0.0
mp-22822,BaV2CdO7,3.072899999999999
mp-2284,AgF2,0.0
mp-2449,NbRh3,0.0
mp-260,CrB,0.0
mp-26083,Li2Mn3(P2O7)2,3.7529999999999992
mp-2614,HfAl3,0.0
mp-26143,Li3Mn3(PO4)4,1.0222
mp-2649,Zr5Sb3,0.0
mp-2669,Mo8O23,0.115499999999999
mp-26884,LiTi2(PO4)3,2.671999999999999
mp-27124,Cu4(BiS2)5,0.0
mp-27466,LiTe3,0.22969999999999902
mp-27707,RbCoCl3,0.0
mp-27811,Li2Te2O5,3.4818000000000002
mp-27815,NbCl3O,2.4319
mp-28088,Ca5(AlBi3)2,0.0
mp-28523,Li2Ta3N5,0.0
mp-28777,Mo9O25,0.0
mp-29182,P2W7O25,0.0
mp-29246,Cd2P3Cl,1.325699999999999
mp-29251,Te6Br2O11,2.5327
mp-29558,Bi3ClO4,2.451
mp-29614,KEu2I5,1.3409
mp-29770,Na3(Mn2Te3)2,0.0
mp-2981,CaTeO3,2.9347000000000003
mp-30519,Tl3PbCl5,3.2826
mp-30540,V(NiP4)4,0.0
mp-31093,Dy2CoSi2,0.0
mp-31394,Ca7Sn6,0.0
mp-3319,Mg(RhO2)2,1.287799999999999
mp-33667,LiDyS2,1.974199999999999
mp-3498,HfGaNi2,0.0
mp-36052,ScUS2,0.0
mp-372,VPt3,0.0
mp-38676,Li11(NiO2)12,0.0
mp-3932,Ca3Si2O7,4.4312000000000005
mp-4210,Sm2CuO4,0.0
mp-4386,Cu2SO5,0.0
mp-504372,Ni6P7O24,0.0
mp-504946,Nb2P4O15,3.2857
mp-5186,ScNiSn,0.0
mp-5302,Gd2Ti2O7,0.0
mp-530514,Li17Nb18O54,0.0
mp-540658,Na3Fe5O9,0.0
mp-545603,Ba2BiSbO6,1.8876
mp-554500,Bi2WO6,2.4391
mp-554766,AgP(XeF5)2,1.3643
mp-555761,Gd2Mo4O15,2.5281000000000002
mp-555775,Mn3B7BrO13,3.7691
mp-555853,In6S7,0.748699999999999
mp-555924,Ca5Nb5O17,0.0
mp-556213,KMnVO4,2.579399999999999
mp-556429,Ag2Mo3SeO12,1.6760000000000002
mp-556475,KLaPdO3,0.45270000000000005
mp-556760,Nb2P4O15,3.284
mp-557125,K3ReClF6,1.8163
mp-557503,Cs2Ni(NO3)4,2.9423
mp-558608,Nb2PbO6,2.479499999999999
mp-558755,Tl2MoO4,3.3154
mp-558810,Ca2TaMnO6,0.0
mp-559295,FePO4,2.6721
mp-559909,Sr3Ru2O7,0.0
mp-560049,CuSeO3,0.0
mp-560068,Na3NO4,3.7505
mp-560247,Li2Ca2Si5O13,4.7982
mp-5605,Ce(SiAg)2,0.0
mp-561499,Dy3CuSnS7,1.603199999999999
mp-568289,CdI2,2.378
mp-568370,La3(SiNi)4,0.0
mp-569203,Tl3Bi2I9,2.3521
mp-569249,Ta3Au,0.0
mp-570061,Nd3NCl6,3.373
mp-570673,ScNi5,0.0
mp-570910,Rb2CrCl4,0.0
mp-570989,UCl5,0.0
mp-573974,Tl10Hg3Cl16,2.6482
mp-581276,Cu2Te2Cl2O5,0.08219999999999901
mp-581958,Nd13Cd58,0.0
mp-5933,BaTiO3,1.726099999999999
mp-604147,Na2Li(H2N)3,2.1905
mp-606703,Ce4(GeS4)3,0.0021000000000000003
mp-607126,Nd(In2Au)2,0.0
mp-613989,Pu,0.0
mp-621930,Cs2SrN12,3.9779999999999998
mp-622619,UVAgO6,1.6212
mp-626703,CrHO2,2.4775
mp-627401,CdI2,2.3587
mp-629082,Ba3MoN4,1.287999999999999
mp-636328,TiPd3,0.0
mp-640442,Na17In12Ga29,0.0
mp-640614,In2Si(AgSe3)2,0.47600000000000003
mp-640880,Nd2(Al3Co)3,0.0
mp-641621,U4Ga12Co,0.0
mp-644103,CaSiSnO5,3.2184
mp-644431,Cd2P3Cl,1.3342
mp-6622,BaNd2Ti3O10,2.0161
mp-667383,SiO2,5.5139
mp-674297,NaNO3,2.5717
mp-675199,NaPrS2,2.1515
mp-675534,Li7Mn10O24,0.0
mp-675797,Zn7(SbO6)2,0.6033000000000001
mp-676154,Yb(DyS2)2,2.1483
mp-676306,Dy7(CuTe4)3,0.3627
mp-676517,La3U2O10,0.24599999999999903
mp-680214,Bi8Se7,0.0
mp-680371,RbPuP2S7,0.2762
mp-680403,K2In3AgSe6,0.9771999999999991
mp-680482,AgMo6Br13,2.0089
mp-683891,MnSb6(Pb2S7)2,0.4535
mp-684621,Cu13I15,0.0
mp-685353,Bi15PO25,2.3087
mp-685813,Ti(PCl6)4,1.3551
mp-7025,RbTeAu,0.045799999999999
mp-704604,Zr(MoO4)2,3.0967000000000002
mp-740722,Na3GeH11O9,3.8724
mp-7422,Ca(CuP)2,0.0
mp-744260,LiLa(MoO4)2,3.7483999999999993
mp-752683,MnCd6O8,0.3058
mp-753175,SrH2(SeO3)2,4.2029
mp-753799,CsTmO2,2.776
mp-754006,Li4AlCr3O8,3.124199999999999
mp-754162,LiGdO2,3.062599999999999
mp-755143,Na3FeO4,0.0
mp-755159,Tl2Ge2O7,0.24859999999999902
mp-755592,K2TbO3,0.0
mp-755640,V4O5F7,1.357899999999999
mp-755643,Rb3InO3,1.8418
mp-756822,V4OF11,1.198
mp-756922,Ho2SO2,2.984499999999999
mp-756926,Li4Ni3BiO8,0.0
mp-756958,LiFePO4,3.4253
mp-757023,VCrO3,1.373599999999999
mp-757111,SbOF3,2.5202
mp-757825,Mg11Ti25O60,0.0
mp-758835,Na(Cu3O4)2,0.0
mp-759796,Mg5Ti13O30,0.0
mp-760032,VP6(WO8)3,1.6359
mp-760220,TiV15O24,0.2524
mp-760231,LiSn2(PO4)3,3.052199999999999
mp-760249,VF4,2.2615
mp-760939,Cu6OF11,0.0
mp-764736,V4O5F7,1.4876
mp-765612,Ba8Bi4O17,1.0646
mp-766286,Bi8Rh8O27,0.0
mp-766506,Li3CuS2,2.0597
mp-766561,LiNd14(Cu3O14)2,0.0
mp-768909,Sr(IO3)2,3.417399999999999
mp-771384,Lu2Co2O7,0.0
mp-7716,SbTe,0.20670000000000002
mp-772660,NbCrO4,1.7965
mp-772797,Ti2Cu(PO4)3,0.565399999999999
mp-775206,VSb3(PO4)6,0.0
mp-775231,NiSb3(PO4)6,0.0
mp-776404,ZrO2,3.462899999999999
mp-777875,LiFeF4,3.5689
mp-778612,Na3CuO2,1.5675
mp-7800,LiSmO2,3.765499999999999
mp-783909,Li2MnSiO4,2.886199999999999
mp-8331,Li12Mg3Si4,0.0
mp-861869,CaLuRh2,0.0
mp-861992,PaNi2Sb,0.0
mp-863413,Sc7V9O24,1.6829
mp-864753,LiYb2Ga,0.0
mp-864959,Dy2CuOs,0.0
mp-865000,HfScIr2,0.0
mp-865573,Li2ErTl,0.0
mp-867136,LiTm2Co,0.0
mp-867611,Mn11ZnO16,0.736499999999999
mp-9092,Er2S3,1.1633
mp-972174,YbLuTl2,0.0
mp-972510,SmTmRh2,0.0
mp-973066,ScGeRh2,0.0
mp-973748,LiIn3,0.0
mp-974638,NdErZn2,0.0
mp-976420,Nd3Ho,0.0
mp-978265,Mg2ZnPd,0.0
mp-978995,TmMnRh2,0.0
mp-980069,YbPrRh2,0.0
mp-983426,PmDyCu2,0.0
mp-989628,YReN3,0.0
mp-997102,KAgO2,1.2056
mp-9983,Ta2Se3,0.0
mvc-11283,Mg(TiS2)4,0.0
mvc-14163,CaMoF5,3.743999999999999
mvc-653,YAg(WO4)2,2.1667
mp-1001012,Sc2ZnS4,0.8259000000000001
mp-1005753,Sm2AlGe6,0.0
mp-1006132,Hf3Pb,0.0
mp-1018818,NdTeCl,0.41330000000000006
mp-1024951,LaScSi,0.0
mp-1025190,Co2NiSe4,0.0
mp-1025219,Ti2VTe4,0.0
mp-1025364,Dy(TiGa2)2,0.0
mp-10620,LiPrO2,3.6028000000000002
mp-1062676,K2Pt,1.412
mp-1075922,Sr7CaTi8O24,1.7845
mp-1076711,SrCuO3,0.0
mp-1077298,TbMgNi,0.0
mp-1078049,Zn(GaS2)2,1.9339
mp-1078884,HfSiRu,0.0
mp-1079167,HfGeRh,0.0
mp-1079229,Mg3Pd,0.0
mp-1079321,ErAgS2,1.026899999999999
mp-1079670,TmSb(PbO3)2,2.686
mp-1079993,ThAgPO,0.0
mp-1080689,LuTe3,0.0
mp-10897,PrAl2Ni3,0.0
mp-1095061,NbReSi,0.0
mp-1095218,BaThTe4,0.0
mp-1095585,Er2Ga8Fe,0.0
mp-1100781,ZrZnNi2,0.0
mp-1101518,Sn(PO3)3,2.4307
mp-1102482,Gd2Ga8Co,0.0
mp-1102848,LaIr3,0.0
mp-1103853,Tb(Mo3S4)2,0.0
mp-1104395,Sm3Al11,0.0
mp-1104593,Tb3Ga8Rh3,0.0
mp-11055,CsSn,0.7471999999999991
mp-1105740,Dy(BRh)4,0.0
mp-1105890,Lu3Tl2Cu5Se8,1.065299999999999
mp-1111890,Na3IrF6,2.0509
mp-1112138,Cs2NaTlBr6,1.0215
mp-1112628,Cs2YInCl6,3.5191999999999988
mp-1113024,Cs2LiBiCl6,3.6054
mp-1113585,Cs2LaAgCl6,3.6176999999999992
mp-1114295,Cs2TlCuBr6,0.0
mp-1114470,Rb2TlAsCl6,1.9956
mp-11229,YAl,0.0
mp-1147721,Li4Zn(PS4)2,2.7266
mp-1147723,Li4Zn(PS4)2,2.7069
mp-1147735,Li4Zn(PS4)2,2.6309
mp-1173723,Na3La5Cl18,3.612199999999999
mp-1175381,Li9Co7O16,0.5354999999999991
mp-1175409,Li9Co7O16,0.0
mp-1176778,LiCoPO4,3.495199999999999
mp-1177928,Li2MgCo3O8,1.234
mp-1177950,Li2FeCuO4,0.16610000000000003
mp-1178111,Li10Co3Ni7O20,0.0
mp-1178370,Dy3TaO7,3.516499999999999
mp-1179089,SrO2,2.8459
mp-1183299,BaHg2Bi,0.0
mp-1183411,Be3Rh,0.0
mp-1183463,Ca2ZnGa,0.0
mp-1183470,Ca2ZnPb,0.08899999999999901