material_id,pretty_formula,band_gap
mp-1212671,Ga5CuTe8,0.4696
mp-1212797,Eu4Ti3O10,0.0
mp-1213081,CsMn2(PO3)6,0.0
mp-1213267,Dy2AlGe3,0.0
mp-1213305,Eu2Ta2O7,0.0
mp-1213517,Eu3Si6N4O9,0.16509999999999903
mp-1214781,Ba4Nd(RuO4)3,0.0
mp-1215798,ZnCd4(GaS2)10,2.1406
mp-1215975,YSn2BiO7,3.0379
mp-1216052,Y3SiS2,0.0
mp-1216139,Y4C4I3Br,0.0
mp-1216275,Y(InCu)6,0.0
mp-1216392,VCrO3,1.6544999999999992
mp-1216490,V9GaGe2,0.0
mp-1217024,Ti6PtAu,0.0
mp-1217099,Ti8Al4CN3,0.0
mp-1217133,Ti5CN4,0.0
mp-1217268,Tm2PbS4,2.185399999999999
mp-1217528,TbGaAg,0.0
mp-1218268,SrCuSi,0.0
mp-1218909,SnTe5Pb4,0.665899999999999
mp-1218924,SnTe2Pb,0.42600000000000005
mp-1218981,SmPaO4,2.5382
mp-1219053,SmEuS2,0.0
mp-1219137,Sm2Ga3Cu,0.0
mp-1219140,Sm3YS4,0.0
mp-1219368,Sm9In(SiS7)3,1.8553000000000002
mp-1219422,Sc7As3,0.0
mp-1219960,Pb4SeS3,0.41960000000000003
mp-1220207,NdBi3(Ru2O7)2,0.06810000000000001
mp-1220486,Nd(SmSb)3,0.0
mp-1220794,Nd3Ti12Bi13O48,2.2434
mp-1221212,Na4Ca2SnP4,0.9089
mp-1221250,Na3Ag(TeS3)2,1.2393
mp-1222144,Mg2AgPd,0.0
mp-1222528,Lu(CuS)3,1.6053000000000002
mp-1222814,LaYCo10,0.0
mp-1223110,La4SbTe7,0.0
mp-1223139,La4BiPb2,0.0
mp-1223143,La3SmCr4O12,2.719100000000001
mp-1223202,La2NiPt,0.0
mp-1223251,La2(TlPb)3,0.0
mp-1223353,KRb(InAu2)4,0.0
mp-1223749,InNi2Sn,0.0
mp-1223800,K2NbO3F,1.5707
mp-1223968,Ho2SiGe,0.0
mp-1224091,InCuTe2,0.0
mp-1224170,HfZrC2,0.0
mp-1224455,In2(PSe3)3,0.7763
mp-1224615,GdDyNi2,0.0
mp-1224645,GdDyAl4,0.0
mp-1224734,La20S29O,1.9503
mp-1224863,GaCo4Ge3,0.0
mp-1224922,GaCuSnSe4,0.6131000000000001
mp-1224942,Gd3ErNi4,0.0
mp-1225425,EuZnIn,0.0
mp-1225625,DyGaAg,0.0
mp-1225643,Er2Ga3Ni,0.0
mp-1225915,La2Al6CuAu,0.0
mp-1226106,CoRhS4,0.0
mp-1226611,CeY4Rh5,0.0
mp-1226937,Ce3Th3Si4,0.0
mp-1227302,CaTb2Mn3O9,0.0
mp-1227340,BiSbTe3,0.28190000000000004
mp-1227353,Ce2NiSn2Pt,0.0
mp-1227356,Bi2TeSe2,0.43769999999999903
mp-1227432,Ce6MnSb15,0.0
mp-1227567,Bi4PbS7,1.1352
mp-1227630,Ca2TlCd,0.0
mp-1227739,BaSr4(FeO3)5,0.0
mp-1228070,Bi5(PO5)3,3.212799999999999
mp-1228310,Ba2TbNbO6,2.8523
mp-1228338,Ba4Bi3PbO12,0.0
mp-1228478,Ba4Ti3PtO12,0.9807999999999991
mp-1228575,Ba2Ga11BiO20,2.9879000000000002
mp-1228622,Al9Cr(BO9)2,3.9451
mp-1229039,Al3ZnNi12,0.0
mp-1229156,Cs3(SeO4)2,0.0
mp-1239266,HfCrAgS4,0.6231
mp-124,Ag,0.0
mp-1246105,Ca7SnN6,1.1075
mp-1274143,Sr2FeWO6,2.0959
mp-1275240,Ba2MnNbO6,1.4833999999999992
mp-1278154,Sr2FeWO6,2.390799999999999
mp-1279043,Ba2MnNbO6,1.3933
mp-1283577,CrO,2.3962
mp-1284095,LiNi3O4,0.1005
mp-1293017,Ba2YMn3O8,0.0
mp-12961,YAlPd,0.0
mp-1298346,Sr2CoO4,0.5907
mp-1301681,Zn(NiO2)2,0.0
mp-1305171,LiMn(CO3)2,1.128499999999999
mp-1305927,Sr3InNiO6,0.1526
mp-1311338,KMnSn3O8,0.8960999999999991
mp-13675,CdPd3O4,0.0432
mp-13803,Nb2Hg2O7,0.46190000000000003
mp-14503,Er3CrB7,0.0
mp-15077,Ag7AsS6,0.500999999999999
mp-1571054,CaCrP2O7,3.1397
mp-15734,KMn4(PO4)3,3.3331
mp-16370,Th2Ge,0.0
mp-16453,BaCe2ZnS5,0.0
mp-1651775,La2VFeO6,1.2751000000000001
mp-1661938,Mg2Ta2MnO8,3.2695
mp-16723,Y3Al2,0.0
mp-16825,Gd3OsO7,0.0
mp-1704,Tb2Tl,0.0
mp-17040,Cs3MnF7,1.7095
mp-17216,Hf5Si4,0.0
mp-17508,K2Nb4Fe2O13,1.8183999999999991
mp-17540,Sr2Co(SeO3)3,2.821399999999999
mp-17597,Ca(ScS2)2,1.287799999999999
mp-17816,Na5AsO5,1.4133
mp-18022,P4Pb3O13,3.9495
mp-18576,Tm2Cu(B2O5)2,0.6691
mp-18995,Ba2FeMoO6,0.0
mp-18998,Sr4Mn3O10,1.3409
mp-19026,Na4FeO3,1.072
mp-19051,LaCoO3,0.0
mp-19067,Mg3V6(FeO6)4,2.2239
mp-19155,CrHgO4,1.9726
mp-19424,TiCoO3,0.0
mp-19857,Ba(MnP)2,0.0
mp-19903,V2Pb3O8,2.9795
mp-202,TaTe4,0.0
mp-20485,InSe,0.459
mp-20606,Tb3In5S12,1.3467
mp-20933,Ce(CoGe)2,0.0
mp-21016,FeAsO4,1.5783
mp-21286,MnCoGe,0.0
mp-21546,K2CeNb5O15,0.0
mp-21644,BaNb8O14,0.20340000000000003
mp-21834,Nd6Fe13Sn,0.0
mp-21951,Er3Co29(Si2B5)2,0.0
mp-22787,Fe2Si,0.0
mp-26390,Nb2(PO4)3,0.0
mp-27323,BaMn2O3,0.0
mp-27515,TlSb3S5,1.5863
mp-27537,Na2TeO4,1.8214000000000001
mp-27543,As4S3,2.3035
mp-27701,Mo9O26,0.6694
mp-28041,Pb9(Br5O2)2,2.9018
mp-28051,SbTeI,0.8925999999999991
mp-28420,SrH4O3,4.337099999999999
mp-28649,NaTi8O13,0.0
mp-28667,Ta(NiTe)2,0.0
mp-28688,SrHgO2,2.1654
mp-28729,Ag25(BiO6)3,0.0719
mp-28736,Pr4RuI5,0.0
mp-29301,Ba4Ga2S7,2.6355
mp-29404,La2CCl,0.0
mp-29793,Na2V3O7,2.5094000000000003
mp-29947,K3PSe16,1.1056
mp-29991,Bi2Te4Cl7,1.3356
mp-30014,As2Kr3F16,1.151599999999999
mp-30215,Pr3MoO7,0.047899999999999006
mp-30366,Ca3Au,0.0
mp-30369,Ca7Au3,0.0
mp-30550,AlAu2,0.0
mp-30589,LaCu4,0.0
mp-30718,K5Hg7,0.0
mp-30923,Ga5Rh3,0.0
mp-31013,U(BO3)2,2.2685
mp-31164,Ce7Ru3,0.0
mp-32697,Y10H21,0.0
mp-369,TbAl3,0.0
mp-3816,Er6Ni2Sn,0.0
mp-3828,BaAl2O4,3.948399999999999
mp-4762,TlAg3S2,0.9054000000000001
mp-4825,Li7VN4,2.84
mp-5032,La3Ru3O11,0.0
mp-504168,Mn6P7O24,0.0
mp-505198,CsCu4Se3,0.0
mp-505464,Cs2Te13,0.48480000000000006
mp-505574,Co2Mo4C,0.0
mp-505663,CsTi2Cl7,0.2903
mp-5224,BaSi2O5,4.7498000000000005
mp-530945,Sr16Fe16O47,0.0
mp-540615,Nb3Se5Cl7,0.9467000000000001
mp-542104,SrV3O7,2.560699999999999
mp-551470,Tl2O,0.8405
mp-553943,Ba4Al3Cu2F21,0.8043999999999991
mp-553994,Ni3(BiS)2,0.0
mp-554052,SmSbMo2O9,3.2175000000000002
mp-554443,Na6Se2O9,1.129199999999999
mp-554526,KGd(PO3)4,3.2575
mp-554786,Rb2Mo2O7,3.3646000000000003
mp-554950,Hg3SbAsS3,1.6692
mp-556156,LiUBO5,1.9059
mp-556436,Sb2BrF15,0.0
mp-556997,Dy3BWO9,3.8053
mp-557074,BaPr2Ti3O10,2.059999999999999
mp-557354,Tm2Te4O11,3.343
mp-557523,VS2,0.0
mp-558125,BaTiO3,2.0811
mp-558722,K3Np(MoO5)2,0.3583
mp-558747,TiTlPS5,1.1771999999999991
mp-559023,Na24In5O15,0.0
mp-559250,VPPbO6,2.3217
mp-559577,Na10U8W5O44,1.7426
mp-559607,TiTlPO5,2.3146
mp-559982,Na2AlZnF7,5.0093
mp-560345,Cs3CuTeS9,1.3256000000000001
mp-560528,K2Ce(PO4)2,1.560699999999999
mp-560835,Pr10Se14O,1.421799999999999
mp-561387,TbMoO4F,3.7961
mp-561582,WSBr4,1.3225
mp-565431,Rb(WO3)3,0.0
mp-566937,TlCu2P2O7,0.014999999999999002
mp-567920,Ti4P3,0.0
mp-568245,NbBr5,1.5990000000000002
mp-5706,SnPSe3,1.3037
mp-5712,Cd2GeAs4,0.067299999999999
mp-574189,PbI2,2.159799999999999
mp-580126,Sm3Ge5,0.0
mp-602328,Ce(InPt)2,0.0
mp-604496,CeSiHRu,0.0
mp-6096,TlHg(AsS2)3,1.6442
mp-613162,CsSnSe3,1.0499
mp-616615,Hf8MnTe6,0.0
mp-619032,PbCN2,1.8563
mp-622570,Ti2Cu3,0.0
mp-626263,Ba(H8O5)2,3.8353
mp-628817,P2W9O31,0.0
mp-629015,BN,4.002099999999999
mp-641526,Fe13Co3,0.0
mp-649774,CuSbPbS3,0.782799999999999
mp-650328,NbTe4,0.0
mp-650619,Cs3Bi7Se12,0.7048000000000001
mp-655461,SrIn,0.0
mp-655613,Cs2Tb6Te7N2,0.7543000000000001
mp-6566,NaZnAsO4,2.7868
mp-6597,CsLiSO4,5.169799999999999
mp-667324,In2Cl3,2.327
mp-669348,NbTeCl9,2.2169
mp-669375,Gd3B2(O2F)3,2.843
mp-669575,Hf2InNi2,0.0
mp-675132,K6InP3,0.7434000000000001
mp-676014,NaAl11O17,4.4125
mp-679967,Nb3Se10Br3,1.2001
mp-680205,PbI2,2.3541
mp-6815,Ti2Cu(PO5)2,0.613899999999999
mp-685137,Ce2SbO2,0.0
mp-685607,CsTaSe3,0.08720000000000001
mp-686086,Tl9SbTe6,0.4892
mp-687091,Rb2U2Mo3O16,2.3526
mp-696175,NaAsH4O5,3.8266999999999998
mp-704306,K2U2MoO10,1.6901000000000002
mp-707333,Na3SiH3O5,3.8935999999999993
mp-715557,W3O8,0.0
mp-7355,Sm2SnS5,0.29399999999999904
mp-752777,Li4Fe3CoO8,1.764499999999999
mp-752923,V2OF5,1.5646
mp-753050,Li2FeNiO4,0.0
mp-753176,AgCO3,0.0
mp-753657,TiOF,0.0
mp-755707,K3LiTi7O16,2.8255999999999992
mp-756237,Li2FeO3,0.305899999999999
mp-756473,WSCl4,1.9441000000000002
mp-758004,K3Nb7O19,2.0838
mp-759481,Li2V2(PO4)3,0.9126000000000001
mp-759662,V2O3F,1.210999999999999
mp-761271,Li2VOF4,2.0948
mp-763291,V3O5F,0.7906000000000001
mp-766021,KH(IO3)2,3.484099999999999
mp-766076,CoPO4,1.1086
mp-766216,Na4(WO3)9,0.0
mp-767088,Li3Sb11S18,0.584699999999999
mp-767141,Sn(PO3)2,3.7518000000000002
mp-768621,MnV(PO4)2,0.1072
mp-768946,Li4Cr3CoO8,0.8766
mp-771704,Li2Cr3SbO8,1.9368
mp-772521,Li8TiO6,3.993099999999999
mp-776315,Zr2N2O,1.648699999999999
mp-776596,VOF2,1.9381
mp-777880,V4(OF3)3,1.3846
mp-779738,Hf2N2O,2.0581
mp-780060,Hf2N2O,2.067299999999999
mp-780570,Ti(SO4)2,2.2047
mp-780573,Ca9Co(PO4)7,0.8428000000000001
mp-781754,Li3Mn2(P2O7)2,0.0
mp-7926,TaSe2,0.0
mp-8053,YCo,0.0
mp-821,NbO2,0.45520000000000005
mp-861587,Pr2In8Pd,0.0
mp-861594,Pr2TlCd,0.0
mp-862656,ErAl3,0.0
mp-862946,Li2PmSi,0.0
mp-865112,NaPrTl2,0.0
mp-865524,YCdPt2,0.0
mp-867109,ScZn2Ag,0.0
mp-867303,AgAu3,0.0
mp-867351,Tc,0.0
mp-8696,K3Na(SeO4)2,3.5665
mp-8742,DyCoSi2,0.0
mp-891,TaNi3,0.0
mp-9439,YbCuSb,0.0
mp-9530,Y4C7,0.0
mp-9668,Ba3TiS5,1.6068
mp-971924,DyYAg2,0.0
mp-972241,Ti2ReTc,0.0
mp-972966,Sc2OsAu,0.0
mp-973480,Nd(BRh)4,0.0
mp-973847,La2ZnGa,0.0
mp-975106,Rb2Bi2O5,0.0
mp-976008,NdTmMg2,0.0
mp-976155,HoLuRh2,0.0
mp-976812,Pr2Zn17,0.0
mp-976949,Lu3In,0.0
mp-977446,NdVGe3,0.0
mp-978521,SmZn2Cd,0.0
mp-979425,YHoAg2,0.0
mp-980055,YErMg2,0.0
mp-982873,Na3Tl,0.0
mp-9850,DyP5,0.1471
mp-989513,SrWN3,1.3647
mp-997085,SrAgO2,0.0
mp-998299,RbSeBr3,1.3016
mp-998413,CsSeBr3,1.205
mvc-10305,CaAg3P3O13,0.0
mp-1006057,LaPrIn2,0.0
mp-1006591,Mg(InSe2)2,0.798999999999999
mp-1016155,NaMn4O8,0.40489999999999904
mp-1017,Zr3O,0.0
mp-1019276,TaSe2,0.0
mp-1021514,NaGe2(PO4)3,3.153399999999999
mp-1025172,Ho(TiGa2)2,0.0
mp-1025358,Er(Al2Mo)2,0.0
mp-10271,ZnCo3C,0.0
mp-10334,Pr(CdP)3,0.5384
mp-1039147,CaZn,0.0
mp-1068,CuS2,0.0
mp-1070375,CsSnCl3,2.1315
mp-1070646,Dy2AlNi2,0.0
mp-1078181,SiBr3,3.9443
mp-1078259,GaBO3,3.917399999999999
mp-1079044,TmNiGe3,0.0
mp-1079264,Nb(SBr)2,1.5097
mp-1079491,LiIn2CuSe4,0.41149999999999903
mp-1080650,BaCuSF,1.6223
mp-10824,ZnCu2GeSe4,0.10990000000000001
mp-1094159,Li3Mg,0.0
mp-1094701,YMg,0.0
mp-1095043,Sc3OsC4,0.0
mp-1095230,CaSeO4,3.2688
mp-1095624,Tb2Ga8Co,0.0
mp-1099778,BaSr7Ti8O24,1.7721
mp-11010,KNdTe4,0.163299999999999
mp-1102216,USiRu,0.0
mp-1102285,AlPS4,2.8617999999999992
mp-1104448,Fe(BO2)2,3.7971
mp-1112156,Cs2YTlI6,3.2366
mp-1112538,Cs2NaMoCl6,1.6672999999999991
mp-1112594,Cs2RhAuF6,0.7084
mp-1114615,RbInBr3,1.3373
mp-11299,Cd2Hg,0.0
mp-11631,Dy2Al6Si4Au,0.0
mp-1173299,Sm2EuSe4,0.33980000000000005
mp-11734,Sr2MgReO6,0.0
mp-1178763,VS2,0.0
mp-1183191,AlCuRh2,0.0
mp-1183460,Ca2InPb,0.0
mp-1183478,CaDyZn2,0.0
mp-1183512,Ca2TlSn,0.0
mp-1184067,Dy,0.0
mp-1185058,LaPrMg2,0.0
mp-1185078,LaYbPd2,0.0
mp-1185405,LiLu2Re,0.0
mp-1185839,MgAg5,0.0
mp-1186254,Nd2TlCd,0.0
mp-1186261,Nd2TlIn,0.0
mp-1186336,NdYZn2,0.0
mp-1186450,PdPt3,0.0
mp-1186809,PuAl3,0.0
mp-1186935,Sc2CdOs,0.0
mp-1186950,Sc2InHg,0.0
mp-1187041,SmGdZn2,0.0
mp-1187087,Sr2LiCd,0.0
mp-1187707,Y2AlCd,0.0
mp-1188262,TbScS3,1.7696
mp-1188308,Er5SbAu2,0.0
mp-1188370,La3Sn5,0.0
mp-1188429,Nd2AlGe6,0.0
mp-1189623,Mg2MnB2Ir5,0.0
mp-1189958,TbAl3,0.0
mp-1190128,Dy2Ge5Ir3,0.0
mp-1190176,Ba3Sn2,0.390099999999999
mp-1190478,PbAu2,0.0
mp-1190900,BaZn2Si2O7,3.2587
mp-1191126,Ce3Co8Si,0.0
mp-1191748,NaCe3GeS7,0.012499999999999001
mp-1192322,Lu3AlNi8,0.0
mp-1192761,Cs2HgCl4,3.027999999999999
mp-1192947,Sc6Al16Ru7,0.0
mp-1193259,Al8Fe5,0.0
mp-1193401,U6Al8Fe5Si9,0.0
mp-1193830,Er2(Ni7B2)3,0.0
mp-1194087,Tm2PbS4,2.2763
mp-1194161,Cr2Cu5(P2O9)2,0.0
mp-1194190,Ba3BiIr2O9,0.0
mp-1194977,Na3YbSi2O7,0.0
mp-1195306,K7(FeTe2)4,0.060099999999999
mp-1195772,KNb2PSe10,0.817299999999999
mp-1196029,Rb3V(SO5)2,3.2024
mp-1196185,V4Cu9(ClO9)2,0.0
mp-1197029,Sm6Al43W4,0.0
mp-1197192,K3TlF6,3.754699999999999
mp-1197287,GeS2,2.2271
mp-1197857,WO3,1.6735000000000002
mp-1197956,Nd2Sb4Ir3,0.0
mp-1198295,K6Na14Tl18Zn,0.0
mp-1198488,Er6Al43Mo4,0.015500000000000002
mp-1198754,ZnSnP14,1.193
mp-1199340,MgBi4(PO6)2,3.051299999999999
mp-1199449,Mn9(PbO5)4,0.0
mp-1200054,V4Fe2O13,2.2986
mp-1200191,Ga21Rh4,0.0
mp-1200195,ScMnGe2,0.0
mp-1200479,BaLuCo4O7,0.8084
mp-1200610,Cs4GeTe6,1.0706
mp-1201271,HfZn22,0.0
mp-1201930,Na3Sr4Cr5F26,3.326699999999999
mp-1202223,WO3,1.4888
mp-1203298,Ba2InSbTe5,0.714599999999999
mp-1203500,Ca(GaS2)2,2.3711
mp-1204721,Tb3InS6,1.032199999999999
mp-1204879,Sr4V2(Se2O7)3,2.7399999999999993
mp-1205547,Ba2GdTaO6,3.2156000000000002
mp-1206209,TbIn5Co,0.0
mp-1206687,PrNiAs,0.0
mp-1206762,Tb2NiAs2,0.0
mp-1207039,La2Cu2I,0.0
mp-1207902,V2(Ni7B2)3,0.0
mp-1207971,Tm(Co2Ge)2,0.0
mp-1208034,U2NiC3,0.0
mp-1208115,V2NO5,2.3775
mp-1208358,Th(Ge3Pt)4,0.0
mp-1208430,Ta6Nb3Te2S3,0.0
mp-1209453,Rb3Au3Br8,1.1374
mp-1209604,PrGa4Os,0.0
mp-1209760,RbCu(PO3)3,0.14880000000000002
mp-1212081,InGaSnO5,1.9078
mp-1212739,EuGa3(BO3)4,0.0
mp-1212956,Er2AlGe3,0.0
mp-1213000,EuAg(WO4)2,0.0
mp-1213133,CuTeSBr,1.229899999999999
mp-1213164,CsTlF4,2.8022
mp-1213641,GdZr6(PO4)9,2.0873
mp-1213858,Co3As2(HO)16,2.8872
mp-1215296,ZrMnCr,0.0
mp-1215429,ZnSnP2,0.8700000000000001
mp-1215542,Zn2GaCuSe4,0.7532999999999991
mp-1215869,Yb2CdPd3,0.0
mp-1216169,Zr24P8H,0.0
mp-1216344,VGa(CuO2)2,0.0
mp-1216354,VCrP2,0.0
mp-1216431,VCr(CuO2)2,0.973399999999999
mp-1216641,TiSnRh,0.0
mp-1216901,Tm6Ga17Pd5,0.0
mp-1217012,V2GePb5O12,2.77
mp-1217053,U(Fe5Si)2,0.0
mp-1217665,Tb5Te9,0.23999999999999902
mp-1217789,SrSmGa3O7,3.2137000000000002
mp-1218047,Ta4MoSe10,0.007099999999999
mp-1218378,Sr4BrN2Cl,1.8938000000000001
mp-1219094,SmBi3(Ru2O7)2,0.060500000000000005
mp-1219249,Si3P3Ir,1.085700000000001
mp-1219655,Rb3H(SeO4)2,3.5978
mp-1219873,Pr2Ga7Ni,0.0
mp-1219918,PmPaO4,2.5064
mp-1220209,P6(Pb2O5)5,2.8017000000000003
mp-1220707,NaZn2CdF7,2.6268000000000002
mp-1221152,Na4TiP2O9,2.7667
mp-1221195,NdCd6,0.0
mp-1221376,Na2MnFeF7,1.4981
mp-1221555,MnVP2,0.0
mp-1222019,MgCdTe2,1.2338
mp-1222155,Mg3FeO4,2.878299999999999
mp-1222214,Mg3(AlCu2)2,0.0
mp-1222239,Pr31Ni64,0.0
mp-1222826,Li2Zr6MnCl15,1.162399999999999
mp-1222866,Lu10Al4Ge11,0.0
mp-1222874,LaPr3Al4O12,3.283599999999999
mp-1222912,LaCeB12,0.0
mp-1223164,La2Nd(MnSi)6,0.0
mp-1223239,La2Al7Cu,0.0
mp-1223291,La2Cu3Ni,0.0
mp-1223417,La2(MoO4)3,3.6685
mp-1223769,K4Ta3NbO12,1.8717000000000001
mp-1223913,In2CuAgSe4,0.25220000000000004
mp-1224070,HgBrCl,2.5964
mp-1224099,Ho2Ga3Ni,0.0
mp-1224121,HfZrS6,1.0847
mp-1224147,InGa(CuSe2)2,0.3159
mp-1224189,Ho7Mg3Rh2,0.0
mp-1224390,HfAu9,0.0
mp-1224618,Ho5Co19P12,0.0
mp-1224747,GdYCu4,0.0
mp-1224749,La9In5S21,1.8282
mp-1224796,Ga2S3,1.4558
mp-1224864,Ga2Ag2Se3S,0.40800000000000003
mp-1225069,Er2AlCo3,0.0
mp-1225421,Dy2Al5Fe12,0.0
mp-1225482,LaCeAl2O6,0.026799999999999
mp-1225856,CsVWO6,1.787
mp-1225871,Cu2GeS3,0.05859999999999901
mp-1226395,CoMo,0.0
mp-1226598,CeTh3O8,2.1605
mp-1226688,Gd3Cu2Te7,0.0
mp-1226822,Ce2Y(AlPd)3,0.0
mp-1226897,Cd4HgSe5,0.0655
mp-1227011,Cd3(CuP5)2,0.907899999999999
mp-1227121,CaThNb2O8,3.5892
mp-1227253,CaU3Ti8O24,0.07259999999999901
mp-1227440,Bi2Sb2(TeSe)3,0.324899999999999
mp-1227575,Ca2MnRuO6,0.0
mp-1227688,BaSr3Ti4O12,1.2234
mp-1227847,CsZr18(PI14)3,0.0
mp-1228031,Ba8Sr(BN2)6,2.0355
mp-1228214,Ba4TiNb9O18,0.0
mp-1228288,Al4Ni15Ge,0.0
mp-1228313,Ba4Si21Au2,0.0
mp-1228772,Ba(V5S8)2,0.0
mp-1228918,AlGaNi6,0.0
mp-1229053,AgHgAsO4,0.0
mp-12362,AgHg3SbO6,0.8652000000000001
mp-1236984,NaMg2(SO4)3,0.0082
mp-12457,LuCuS2,1.703199999999999
mp-12778,VOs,0.0
mp-12807,KAlO2,3.753799999999999
mp-1282726,V2PO5,0.5955
mp-1286297,Mg3Fe2O5,2.7047
mp-1286841,Mg4FeO5,2.807299999999999
mp-1302478,LiV3Zn2O8,0.0
mp-1305455,Li2Ni3TeO8,0.0
mp-1311980,Na2FeO3,0.0
mp-14215,Ba4GeP4,1.0183
mp-1509,Sn2S3,0.8572000000000001
mp-15177,Ho4C7,0.0
mp-15359,GdAl3(BO3)4,2.8493
mp-15700,Zn3As2,0.07339999999999901
mp-16088,Tb3Co29(Si2B5)2,0.0
mp-16156,Sr(Ni5P3)2,0.0
mp-16699,Li6Gd(BO3)3,0.1311
mp-1730,BaGe,0.0
mp-17889,KNa2(PO3)3,5.058499999999999
mp-18635,Sr6GaN5,0.3113
mp-18680,Tm8S11,0.0
mp-19170,PrNiO3,0.0
mp-19504,BaV2(CoO4)2,1.896399999999999
mp-20326,U(PS3)2,0.0
mp-20469,YbIn3,0.0
mp-20576,Ge2Pt3,0.0
mp-20669,Ca2In,0.0
mp-21339,CeCoGe,0.0
mp-21400,Ga3Pt2,0.0
mp-21706,GdAl3(PbO4)2,2.9819999999999993
mp-22079,AsRh,0.0
mp-22596,Ni3(PbS)2,0.0
mp-23043,RbPb2Br5,3.0853
mp-23293,TbCl3,3.807499999999999
mp-23457,PBr2N,3.0519
mp-23751,CsMgH3,2.7741
mp-24131,GdH3,0.0
mp-2451,YAl3,0.0
mp-25266,Mo2P2O11,1.7982
mp-27026,Mn2P5O16,0.0994
mp-27290,Sb2XeF14,1.9429999999999992
mp-27533,P2Pd15,0.0
mp-2757,CdAu,0.0
mp-27670,Rb4In2S5,2.097499999999999
mp-27953,Mo2N,0.0
mp-28031,P2W5O19,0.0
mp-2816,Nd2Tl,0.0
mp-28252,Ba5(GaS4)2,2.5334
mp-28619,VSeO4,1.8343
mp-28629,Ta5B6,0.0
mp-28889,Hg5(SbI3)2,1.4026
mp-28997,Y2AlGe3,0.0
mp-29641,GeSb4Te7,0.521799999999999
mp-29957,Zr5Te6,0.0
mp-30136,Hg2Mo2O7,2.2203
mp-30140,BeI2,4.140099999999999
mp-30335,Al23V4,0.0
mp-30995,Fe2Te4O11,1.5126
mp-31326,Mg2In,0.0
mp-31356,Sr3MoN4,2.4366
mp-3173,CaAlSi,0.0
mp-3179,Tb3(CuSi)4,0.0
mp-3267,TlSb5S8,1.5463999999999989
mp-33338,LiGa3Te5,1.0404
mp-34412,Sr(La2Se3)4,0.0
mp-3531,Ca2P2O7,5.4171
mp-37108,Sr(NdS2)2,2.103199999999999
mp-3985,Tm(MnGe)2,0.0
mp-4083,MgCuAs,0.0
mp-46,Ti,0.0
mp-470,GeO2,1.9071999999999991
mp-4800,Ca11(CN5)2,1.073
mp-489,Ge4Ir,0.0
mp-504935,K2PbO3,1.6007
mp-505137,Nb3SiTe6,0.0
mp-505262,GdCuSeO,0.0
mp-505544,Co21(B3Sb)2,0.0
mp-531376,Li4Mn3Cl10,1.2928
mp-540858,Cu3(AsO4)2,0.021199999999999
mp-540925,Hg2AsF6,0.7400000000000001
mp-541708,VCdAgO4,1.8466
mp-541774,BiAuBr6,1.1518
mp-541851,Ce2(Ni7B2)3,0.0
mp-542482,CsEr2Cu3Se5,1.3342
mp-542495,TaSe2,0.0
mp-542629,Rb2Mo9Se10,0.0
mp-542818,BaVS3,0.0
mp-554033,Na6Si8O19,4.5318000000000005
mp-555031,Fe3SiP5O19,1.6748
mp-555385,CaMnB2O5,2.9771
mp-555548,MgAlPO5,4.978499999999999
mp-555598,KGd(PO3)4,3.1024
mp-555912,PrCu(MoO4)2,1.9748
mp-556183,Pr3U(ClO2)3,1.4282
mp-556419,ReO2F3,3.4309000000000003
mp-556659,La3TiCl5O4,3.3379
mp-557123,Na2CuSi3O8,0.758
mp-557471,MnAsO4,1.1480000000000001
mp-557553,K4Cr(NO5)2,3.1007
mp-557644,Ag2P2PbO7,2.4212
mp-557685,NbIO2,1.0433
mp-558199,CuAs4S3Cl,1.621699999999999
mp-558647,Cu9Se4(Cl3O7)2,0.0
mp-558946,BaSbSe2F,1.45
mp-559025,BaErAgS3,1.1305
mp-559355,Hg3AsS4Cl,1.537
mp-559387,Mn3V6(FeO6)4,1.4862
mp-559430,Na6U2Mo4O21,2.114899999999999
mp-559919,CsMo2P3O13,2.252099999999999
mp-560058,Li9Ga3P8O29,2.5912
mp-560238,K2CuF4,0.0
mp-560801,GdAl3(BO3)4,2.9134
mp-561158,Na4Zr(MoO4)4,3.6338
mp-561398,NaAl(MoO4)2,3.7276
mp-561735,Cs7O,0.0
mp-562001,Cs11O3,0.0
mp-562107,Mn2V2O7,1.4437
mp-566150,In2Cu3(PO4)4,0.0
mp-567082,Ti4As3,0.0
mp-567456,CaGe2,0.0
mp-567462,Sc3RhC4,0.0
mp-567472,CuP4I,0.8797
mp-567692,Y3Ni4B4C3,0.0
mp-568449,Sm2AlGe3,0.0
mp-569072,La3B(CBr)2,0.0
mp-569308,Bi2(PSe3)3,1.4093
mp-569830,Te2PdBr6,1.3202
mp-569939,AgBi2Se3Cl,0.7338999999999991
mp-570455,CsNb6I11,0.0
mp-570763,VCl4,0.0
mp-581875,Ta3Bi7O18,2.345499999999999
mp-5867,K3Nb8O21,0.0
mp-607464,Re2Cl5O4,0.6446000000000001
mp-613545,RhSe2Cl7,1.8899
mp-616135,Cs5SiP3,0.8444
mp-622497,V3O5,0.0
mp-626791,VHO2,0.0
mp-637680,K2Mo4O13,2.9414000000000002
mp-642316,CuBi5PbS9,0.6023000000000001
mp-642535,Cs4Sb14S23,1.373999999999999
mp-644092,Na2LiAlH6,2.8229
mp-645291,As3Pb5ClO12,3.0356
mp-647158,SrTeO3,3.464
mp-653954,Cs2Re2S5,0.811199999999999
mp-654008,K3Cr11S18,0.26120000000000004
mp-662714,GdAs2Pd3,0.0
mp-667421,SrTeO3,3.3955
mp-669350,Rb5Mo18S19,0.0
mp-669377,Ba2CaWN4,1.88
mp-669509,Gd2S3,0.5661
mp-669645,Nd5In11Ni6,0.0
mp-6716,Ba4Zr(RuO4)3,0.0
mp-674508,RbPbF3,3.9833
mp-676398,Rb2CrCl4,0.0
mp-676580,Ba11(Nb3S14)2,0.46530000000000005
mp-676751,Cr5AgS8,0.0
mp-680254,Yb7Cl15,0.0
mp-680394,Ca3AlCd17,0.0
mp-683966,GaP3(NCl3)3,3.9035
mp-684997,Ni23Te42,0.0
mp-685441,K(WO3)9,0.0
mp-690658,V2CuO6,0.3124
mp-699151,Sr6Mg7H26,2.9617
mp-721324,Gd2(MoO4)3,1.355
mp-7367,Ca(GaO2)2,2.987599999999999
mp-7376,Sr3(AlSn)2,0.0
mp-744199,CaNdMn2O6,0.0
mp-752413,Ca2HfO4,3.8404
mp-752907,VF5,3.0812
mp-752913,Li2FeSiO4,3.0238
mp-753235,Li2Mn3TeO8,0.21830000000000002
mp-754341,Ho2TeO6,3.1408
mp-754472,HoCuO2,2.5786
mp-754790,Ti3N2O3,1.5488
mp-755554,LiFeF4,3.789799999999999
mp-755883,NaDyO2,4.129799999999999
mp-757206,BaTi6O12,0.0
mp-757340,Al19CrO30,3.923799999999999
mp-759384,LiSn2(PO4)3,3.5022
mp-760007,Hf3N2O3,3.307299999999999
mp-766127,VPO5,1.7948
mp-766434,SnP2O7,3.7447
mp-767435,P3(WO6)2,2.0766
mp-769505,Li7Mn10Cr6O32,0.0
mp-772578,Li2Mn3SnO8,0.7040000000000001
mp-774754,KRe4O8F13,3.1304
mp-774914,Cr3Ni(SO4)6,0.0
mp-775785,Hf2N2O,1.9855
mp-776152,V2O5,1.7945000000000002
mp-776335,Zr2N2O,1.7873
mp-776360,Zr2N2O,1.791
mp-7765,Ba3SiO5,3.5688
mp-777540,V2O3F,1.189099999999999
mp-778749,VOF2,2.131199999999999
mp-779979,Hf2N2O,1.960199999999999
mp-780230,Hf2N2O,2.0011
mp-780255,Gd3NbO7,2.2855
mp-780274,Hf2N2O,1.978599999999999
mp-780493,Li8CrO6,2.1382
mp-8086,Na2Zn2O3,1.0543
mp-8090,Cu2P2O7,0.0
mp-849060,VS2,0.0
mp-850419,MnV4NiO12,2.0117
mp-863701,Ho2Mg,0.0
mp-864824,LiTbAu2,0.0
mp-865118,NaPrAu2,0.0