material_id,pretty_formula,band_gap
mp-1186569,PmEuHg2,0.0
mp-1186643,PmSmGa2,0.0
mp-1186648,PmSmZn2,0.0
mp-1187216,SrHg2Pb,0.0
mp-1187610,TmMg3,0.0
mp-1187859,YHoRh2,0.0
mp-1188214,Ce2Si5Rh3,0.0
mp-1188299,TmSiPd2,0.0
mp-1188365,PrPd3S4,0.0
mp-1188825,Dy2Si5Rh3,0.0
mp-1189011,Ta3CrS6,0.0
mp-1189046,Er(BIr)4,0.0
mp-1189290,Ce(HoS2)3,0.0
mp-1189438,TlBi2Cl7,3.3238
mp-1189596,Pr2Zn5Pb,0.0
mp-1189687,Pr5Sn3,0.0
mp-1190019,LuZn3,0.0
mp-1190044,Tm4Ge6Os7,0.0
mp-1190635,Na2OsO4,0.274699999999999
mp-1191015,LiNdSn,0.0033000000000000004
mp-1191467,Cs2CuP2O7,0.0
mp-1191538,Ca8In3,0.0
mp-1191930,CeIr3,0.0
mp-1192913,Gd(Al5Ru)2,0.0
mp-1192941,Nb8PtSe20,0.0
mp-1193010,Gd2Mn17C3,0.0
mp-1193208,KHg6,0.0
mp-1193337,Cs5Ga3Se7,2.083199999999999
mp-1194206,Sc6Al16Os7,0.0
mp-1195197,Ca3BI3N2,3.5096
mp-1195691,GdBe2B5O11,0.30150000000000005
mp-1196038,Ba2B11H7O22,5.6652000000000005
mp-1196297,CsRb2Sb4F15,4.0177
mp-1197125,K3Al2(AsO4)3,3.2748
mp-1197177,CsRb14Tl27,0.0
mp-1197290,Tb3Ga5,0.0
mp-1197413,Sc9Te2,0.0
mp-1198712,Y5Ir3,0.0
mp-1198803,Sc5Ge4,0.0
mp-1199867,SmCo3P2,0.0
mp-1200087,La(TiAl10)2,0.0
mp-1200734,CsInP2O7,3.790899999999999
mp-1201660,Ho5(Ge5Os2)2,0.0
mp-1201667,Y5P12Ru19,0.0
mp-1201886,Y2B6Os,0.0
mp-1201961,Cs6Ho21Te34Cl,0.8943999999999991
mp-1202780,Ca3Ge13Ir4,0.0
mp-1203034,MgH16(IO4)2,3.7407
mp-1203256,Zr14As9,0.0
mp-1203303,CsCoPO4,3.1798
mp-1203743,CsLu7Se11,1.5927
mp-1204608,Tb11(In3Si2)2,0.0
mp-1204612,Ce4CI6N,0.008099999999999
mp-1204655,SrSbSe3,0.40180000000000005
mp-1204785,K3Cd(BO2)5,3.8139000000000003
mp-1205300,Tm(Co2B)6,0.0
mp-1205406,U3VSb5,0.0
mp-1205558,HoB3Mo,0.0
mp-1206034,Lu6MnBi2,0.0
mp-1206047,Ba2LuUO6,0.835399999999999
mp-1206409,K(FeP)2,0.0
mp-1206636,SrTl3,0.0
mp-1206686,TbNiBi,0.28600000000000003
mp-1206704,MoPd2,0.0
mp-1206927,Hf2Se,0.0
mp-1206970,KPaO3,3.273799999999999
mp-1207086,MgAlB4,0.0
mp-1207243,Sm2GaCo2,0.0
mp-1207679,Yb2(GePt3)3,0.0
mp-1207742,Y2OsC2,0.0
mp-1208191,Tm6Ti4Al43,0.0
mp-1208228,Ti3NbAl2,0.0
mp-1208248,Ti2Cr4Si5,0.0
mp-1208587,Ta11(SiSe4)2,0.0
mp-1208812,SmCrGeO5,2.6698999999999993
mp-1208892,Sm6Al43V4,0.0
mp-1208915,Sm2Sc3Si4,0.0
mp-1209215,Sb3IO4,2.5352
mp-1209684,PrAg(WO4)2,3.145
mp-1209845,NdSiPd2,0.0
mp-1209943,Pr3Cr10N11,0.054899999999999005
mp-1210070,Nd2Ni12P5,0.0
mp-1210082,Nd6Al5Fe9,0.0
mp-1210294,Sc25InIr7,0.0
mp-1210641,Mg3B2Rh5,0.0
mp-1210817,MnAlSiO5,1.7564000000000002
mp-1211639,LiCa11Sb9,0.8026999999999991
mp-1211984,La12Ni6Pb,0.0
mp-1212316,Ho3(SbPd2)4,0.0
mp-1212442,Hf5Si3N,0.0
mp-1212540,GdTl(WO4)2,2.9489
mp-1212634,ErTeAs,0.37199999999999905
mp-1212713,Fe3B7BrO13,3.5219
mp-1212854,Er2(Al3Pd)3,0.0
mp-1213200,Dy3(Al3Os)4,0.0
mp-1214633,Ba2LiTeO6,0.0
mp-1214641,BaRe2O9,0.22459999999999902
mp-1214653,Ba3Gd(BO2)9,3.767
mp-1215714,Zn2Pd,0.0
mp-1215911,Yb2Mn3Sb3O14,0.0
mp-1216056,Y2PS,0.0
mp-1216253,Y4Co16B3C,0.0
mp-1216599,UCuSi2Ni,0.0
mp-1216633,URu2Rh,0.0
mp-1217102,Ti3Nb(AlC)2,0.0
mp-1217510,U6P13Rh20,0.0
mp-1217703,Tb3Al3NiPd2,0.0
mp-1217749,Tb9Al5S21,2.3534
mp-1218352,Sr3NdMn2O8,0.0
mp-1218957,SmZnSi,0.0
mp-1219646,Sc19(RuBr7)4,0.0362
mp-1220483,Nb6TlS8,0.0
mp-1220559,Nb4H3S8,0.0
mp-1220820,NaBi3(ClO2)2,2.3702
mp-1220980,NaNd(MoO4)2,3.4275
mp-1222023,MgGaCu,0.0
mp-1222033,Mn4Zn3(NiO6)2,0.0
mp-1224157,K2UF6,0.0
mp-1224240,HfUC2,0.0
mp-1224649,In6Te10Pb,0.9293
mp-1224914,GaSb3Pb4O13,1.161699999999999
mp-1225036,Gd(AlCu)6,0.0
mp-1225230,EuCdAg,0.0
mp-1225541,Er2TeS2,1.8152
mp-1225684,Er4TaV7B24,0.0
mp-1226167,Cs3V2O2F7,2.8835
mp-1226292,Cr4(SeS)3,0.0
mp-1227161,CaPr3(FeO3)4,0.0
mp-1228581,Ba4Na2W2O11,3.6534
mp-1228910,Al2FeNi,0.0
mp-1229054,Al53Fe17Si12,0.0
mp-1237009,K3Pu(H3O4)2,1.1758
mp-1245965,Ba3ReN3,0.0
mp-12631,SrTcO3,0.0
mp-12703,PrZnNi,0.0
mp-1279,TaN,0.0
mp-12806,Cu2GeTe3,0.0
mp-1286807,AlV2O4,0.2716
mp-1291,ErIn3,0.0
mp-13019,NaLa2TaO6,3.965199999999999
mp-13241,MgSi7Ir3,0.0
mp-13551,ScTeO3F,3.244999999999999
mp-13955,SmSi2,0.0
mp-1427,Lu2O3,4.031099999999999
mp-15500,Sr4TiP4,1.432
mp-15604,TmB2C,0.0
mp-15638,CdRhF6,0.0
mp-16382,KCd6P7O24,3.0775
mp-16506,Li3Al2,0.0
mp-1682,ZrAs,0.0
mp-16967,CaV4(AgO6)2,1.9606
mp-17020,TiTl2(GeO3)3,2.6044
mp-17370,LaSn2Rh,0.0
mp-18267,La2Cu(SeO3)4,0.42899999999999905
mp-18411,Na3GeSe3,1.9947
mp-1849,Mn2P,0.0
mp-18605,RbLa(WO4)2,3.8242000000000003
mp-18795,Mn3TeO6,1.1017000000000001
mp-18964,K3NaCr2O8,3.0493
mp-19102,Sr2FeO4,0.0
mp-19718,CeInAu,0.0
mp-19740,YInPt,0.0
mp-19917,ZrSiTe,0.0
mp-19991,SrIn4Pd,0.0
mp-20082,Yb(As2Rh3)2,0.0
mp-20201,NdZnSn,0.0
mp-20257,AsPd3Pb2,0.0
mp-2054,TbHg,0.0
mp-20557,YSiNi,0.0
mp-21051,EuInPt,0.0
mp-21169,Ce2NiB10,0.0
mp-21312,Ca(Ni2B)6,0.0
mp-214,ZrRu,0.0
mp-21876,Ba3NaIr2O9,0.0
mp-21975,In4Ag9,0.0
mp-22243,LiNiAsO4,0.0
mp-22291,CsGdHgSe3,0.0
mp-22539,CeNiSb2,0.0
mp-22586,EuCrO4,0.0
mp-22646,InPd2,0.0
mp-22907,DyBi,0.0
mp-23161,NpCl4,0.0
mp-23566,Mn3B7IO13,3.7137000000000002
mp-23929,ZnH8(NO5)2,3.4231
mp-2431,ErTl3,0.0
mp-2475,SmAg,0.0
mp-2629,Ce7O12,0.0
mp-27309,VF5,2.991999999999999
mp-27806,Ni(NF7)2,2.3579
mp-27861,Ce(Re2Si)2,0.0
mp-28568,Rb3CuO2,1.4431
mp-28717,Cu6As4S9,0.3527
mp-28947,NaSn2Cl5,2.978399999999999
mp-29369,Sb7F29,3.594999999999999
mp-29413,Rb3Nb2Br9,0.0
mp-29424,Sr4As3,0.585399999999999
mp-29426,Y5C2I9,0.635899999999999
mp-29560,La6Si7Br3,0.0
mp-29752,NiGePt2,0.0
mp-29759,VXe2F17,2.428499999999999
mp-29984,Na4MoO5,2.858
mp-3046,Yb3Sn13Rh4,0.0
mp-30580,SrGaCu2,0.0
mp-30591,Li2CuSn,0.0
mp-30604,DyGa,0.0
mp-30613,ErSn2,0.0
mp-30673,Ti2Ga3,0.0
mp-30877,SrTl2,0.0
mp-30945,Ga2PdBr8,1.6180999999999992
mp-31214,Ti3P,0.0
mp-31252,La5(AlBr)4,0.0
mp-316,MnV,0.0
mp-3250,Ni2SbTe2,0.0
mp-3262,Tm(CoSi)2,0.0
mp-3352,ErSiPd2,0.0
mp-3398,Ho2Ni2Pb,0.0
mp-3535,RbCeS2,0.08220000000000001
mp-3538,Hg3TeO6,1.1609
mp-3582,Mg(BC)2,1.0453000000000001
mp-3591,NdBRh3,0.0
mp-3717,LuBRh3,0.0
mp-4195,Tm(NiGe)2,0.0
mp-4275,Sm(SiPd)2,0.0
mp-4299,HoInPd,0.0
mp-4448,Y3AlC,0.0762
mp-4505,La3AlN,0.0
mp-4692,Dy(SiNi)2,0.0
mp-4816,LaGaS3,2.2014
mp-4817,CeAl5Ni2,0.0
mp-504560,Y2ReB6,0.0
mp-504704,Ni2Hg2OF6,1.1702
mp-504856,U2Ni12P7,0.0
mp-504921,Sc7CBr12,0.0
mp-505187,K6Pb2O5,2.1281
mp-505489,Sc7BCl12,0.0
mp-505527,Ti5Si4,0.0
mp-510085,Er2Ti3Si4,0.0
mp-510306,Sc2CrB6,0.0
mp-510462,CsDyZnTe3,1.3714
mp-516,LuSb,0.0
mp-522,CuAu,0.0
mp-530274,Al23B50,0.0
mp-5327,Na4UO5,2.1802
mp-541,Ta3Sb,0.0
mp-541175,Sc7CoI12,0.543199999999999
mp-541568,Sr2Li3NbN4,2.1278
mp-5419,LiGa2Ir,0.0
mp-542079,K3La(PSe4)2,1.4575
mp-542293,Ba11Bi10,0.0
mp-542450,Cs3Mn4(PO3)12,0.0
mp-542830,Mn23C6,0.0
mp-5491,MnAlAu2,0.0
mp-554022,Sn2P2O7,3.482999999999999
mp-554155,KSb(PO4)2,2.9667
mp-554317,RePCl8O,0.0335
mp-554745,CrP2Pb5O13,2.1533
mp-555481,Ba6Er2Ga4O15,3.5263
mp-555599,CuS,0.0
mp-555696,Cs4Nb2Si8O23,3.731899999999999
mp-555954,BaSnHgS4,1.8593000000000002
mp-555977,Rb2ZnO2,1.5006
mp-556125,Na2BHO3,3.8109
mp-556787,K2Cu3S3O13,0.1405
mp-557348,BaV2(P2O7)2,2.044799999999999
mp-557367,K2CaAs2O7,3.5309
mp-558121,K4Ba(VS4)2,1.5569000000000002
mp-558320,K3U3Si2O13,0.5497000000000001
mp-558375,Ce3CuSiS7,0.0097
mp-558523,PAuClF3,3.5947
mp-559352,Ba4Na(BiO4)3,0.285099999999999
mp-559481,BaVClO3,2.3926
mp-559790,K2Nb3Cl7O5,2.2949
mp-560352,SrP2(XeF6)3,2.6997
mp-561144,K3CaV5O15,2.7216
mp-561233,Sm9(SbO)5,0.0
mp-561277,K2PbO3,1.154399999999999
mp-567685,Er4InIr,0.0
mp-567695,UMn2,0.0
mp-568225,TbB4,0.0
mp-568498,Sm2(CN2)3,2.6747
mp-568508,CsRb(MnCl3)2,1.430699999999999
mp-568655,In7Pd3,0.0
mp-568924,PrB2Rh2C,0.0
mp-569059,HfI4,2.313799999999999
mp-569074,Th7Pt3,0.0
mp-569193,Cs4P2Se9,1.513099999999999
mp-569209,SbAsPCl13,2.127399999999999
mp-569348,TlGaBr4,3.5506
mp-569364,Be22Re,0.0
mp-569954,SrCd11,0.0
mp-570007,SmOs2,0.0
mp-570670,YOs2,0.0
mp-570837,Cs(AsRu)2,0.0
mp-570845,Zn(GaNi)3,0.0
mp-570936,K(SnAu)3,0.0
mp-571191,LaZn11,0.0
mp-572551,Cs2U(Br2O)2,1.9861
mp-573376,Lu2CCl2,1.046999999999999
mp-573855,La7Ni3,0.0
mp-5786,U(SiOs)2,0.0
mp-582648,RbRe3Br10,0.9885
mp-583070,Re2Te5,0.6052999999999991
mp-5927,Cs2Mn3Te4,0.0
mp-6017,Na3In(PO4)2,3.2916
mp-604889,K3Gd3(PS4)4,1.498999999999999
mp-607806,Ho3Se3N,1.521299999999999
mp-607826,EuMoClO4,0.1555
mp-6109,CaTiSiO5,2.9707
mp-616492,DyGe2Pt,0.0
mp-6167,Ba2NdNbO6,2.9943
mp-620812,Y2Ge5Ru3,0.0
mp-622199,KCuP2Se5,1.2294
mp-632724,ReH8(NCl3)2,1.081899999999999
mp-640051,Pu2Ni2Sn,0.0
mp-6430,Ba2YReO6,0.0
mp-645272,TlV3(SeO6)2,2.3173
mp-650968,Nd5(FeB)18,0.0
mp-651332,SeBr4,2.2103
mp-6662,NaSr3IrO6,0.0
mp-669,ThAl2,0.0
mp-677152,Ho10Te7S10,1.611099999999999
mp-679997,CsAg2(B5O8)3,3.583599999999999
mp-680653,Yb8In3,0.0
mp-685008,Ba20As13,0.0
mp-686581,In2(PSe3)3,0.7303000000000001
mp-7080,Li5(NiN)3,0.0
mp-7295,RbCr5S8,0.319899999999999
mp-734194,BeH8(IO5)2,3.8898
mp-7359,BaAgAs,0.0
mp-74,Rh,0.0
mp-7494,K2Ag4S3,0.128299999999999
mp-7498,Ti5Te4,0.0
mp-752686,Sm3TaO7,3.4265
mp-754168,Co(NiO2)2,0.0
mp-754684,Ba4IrO6,0.0
mp-755074,CeOF,0.0
mp-760109,Bi2(SO4)3,4.250199999999999
mp-761229,Na2MnO3,1.4596
mp-7644,LuAsO4,3.564199999999999
mp-770998,GdTa3O9,2.8701
mp-771139,Cs4HfO4,3.0517
mp-7768,Th2SeN2,1.4789
mp-778924,ZnSeO4,2.0896
mp-7876,Ba(MgGe)2,0.0
mp-812,Ho2O3,3.9612
mp-8557,BaPaO3,0.0
mp-861600,Ho2ZnIn,0.0
mp-861620,LaZn4,0.0
mp-861946,Er2MgAl,0.0
mp-861947,LiPm2Ga,0.0
mp-862844,PaAl3,0.0
mp-863666,Er2RuRh,0.0
mp-864632,Yb4Ni13C4,0.0
mp-864650,Ta2OsW,0.0
mp-864794,ZnAg3,0.0
mp-864836,Dy2Ni12P7,0.0
mp-864984,MnV3,0.0
mp-865166,HfPd5,0.0
mp-865262,TmTaRu2,0.0
mp-865288,TmTlRh2,0.0
mp-865600,Y2IrPd,0.0
mp-865933,LiSiIr2,0.0
mp-865958,AcTlAg2,0.0
mp-866080,MgSc2Tl,0.0
mp-866172,HoMg3,0.0
mp-866177,YbAgPd2,0.0
mp-866222,AcSi3,0.0
mp-866669,Sr17(Li2Hg3)3,0.0
mp-8670,Ca3CrN3,0.0
mp-867211,LiCa2In,0.0
mp-867217,CaPrHg2,0.0
mp-867263,ScCdHg2,0.0
mp-867331,K3InAu5,0.0
mp-867955,Na2Nb3O6,0.0
mp-972072,YbYPd2,0.0
mp-972120,Sr(GaAs)2,0.7366
mp-972521,SmGe,0.0
mp-972526,SmSnAu2,0.0
mp-973395,Ho3ReB7,0.0
mp-974376,PtRh3,0.0
mp-975384,RbBiO3,0.0
mp-977442,Yb2ZnGa,0.0
mp-977566,MgScPd2,0.0
mp-979045,Tm2CuPd,0.0
mp-982724,HoTmTl2,0.0
mp-9828,YbPPt,0.0
mp-983229,Pm2ZnRh,0.0
mp-983362,Hf2FeTc,0.0
mp-983551,CePmTl2,0.0
mp-983587,Ac2NiGe,0.0
mp-989619,LaTcN3,0.0
mp-9906,Y(Re2Si)2,0.0
mp-9967,NdSi,0.0
mp-999488,NaDySe2,1.9221
mvc-10634,BaWF7,3.276
mp-1009077,FeH,0.0
mp-10123,Ni21(B3Sb)2,0.0
mp-1014231,Hf2Zn,0.0
mp-1018025,LuAgO2,2.1874000000000002
mp-1018782,Li3YBi2,0.0
mp-1019319,TcN,0.0
mp-1025370,InSiPt5,0.0
mp-1025568,MnAg2GeTe4,0.0
mp-1029686,Sr3OsN3,0.0
mp-10446,Sc6NiTe2,0.0
mp-1052,NaAu2,0.0
mp-1068048,BaSn3Au,0.0
mp-1068157,Sr2CdPt2,0.0
mp-1071163,TiO,0.0
mp-10716,YbRh3C,0.0
mp-1071863,PrMgSn,0.0
mp-1072586,SmCdNi4,0.0
mp-1078429,EuGa3Pd,0.0
mp-1078535,Na2TcF6,1.5765
mp-1078726,CsHoS2,2.2786
mp-1079501,Tb2InAu2,0.0
mp-1079744,SmCdPd,0.0
mp-1080178,GdZnPd,0.0
mp-1080464,Ba3(CdAs2)2,0.0
mp-10950,Sr2Cu(PO4)2,0.26370000000000005
mp-1095280,SrFe2S2O,2.0437
mp-1095482,YbOs2,0.0
mp-1095508,Er5S7,0.0
mp-1095619,SmNi3,0.0
mp-1095668,TaFeAs,0.0
mp-1095684,SrInPd,0.0
mp-1096967,FeF3,3.0669
mp-1097959,LiEu4(BN2)3,0.0
mp-1101090,GdAlNi,0.0
mp-1101818,BaLaAgSe3,1.6435
mp-1102510,Ho5S7,0.0
mp-1102923,EuCdGe,0.0
mp-1103548,Ce3(SiPd)4,0.0
mp-1103746,GdGePt,0.0
mp-1103889,Eu(AlS2)2,1.0804
mp-1103974,La(Mo3S4)2,0.0
mp-1104184,Pr3Pd4,0.0
mp-1104551,DyZn12,0.0
mp-1104663,Cs(MoSe)3,0.491299999999999
mp-1104954,Ho(Al2Cu)4,0.0
mp-1105622,Cs3CoCl5,0.7776000000000001
mp-1105702,Zr4NbGa3,0.0
mp-1106136,GdGaPd2,0.0
mp-1106250,Gd5Pb3,0.0
mp-11086,La2MgCu2,0.0
mp-1111932,K2LiScCl6,3.7614
mp-1113342,Rb2CuBiCl6,1.142
mp-1113592,Cs2GdAgCl6,0.0
mp-1113876,Rb2AgRhF6,1.4695
mp-1114562,Rb2LiBiCl6,3.6126
mp-1114650,Rb2ScInCl6,2.6637
mp-11270,MnBe2,0.0
mp-11340,Dy(Ni2As)2,0.0
mp-11501,MnNi3,0.0
mp-11507,Ni4Mo,0.0
mp-11687,VTe2,0.0
mp-11749,Tm5(SiSb)2,0.0
mp-1181033,HoB2Ru,0.0
mp-1183124,AcEuZn2,0.0
mp-1183182,AcMgZn2,0.0
mp-1183377,Ac2InGa,0.0
mp-1183842,DyErZn2,0.0
mp-1184548,HPd,0.0
mp-1184658,HgPd3,0.0
mp-1185334,LiCeHg2,0.0
mp-1185522,Lu3Tl,0.0
mp-1185595,LuMg149,0.3255
mp-1186350,NiIr3,0.0
mp-1186407,PaSnRu2,0.0
mp-1186652,PmSmRh2,0.0
mp-1187956,Yb2TlSn,0.0
mp-1188098,CeZn3,0.0
mp-1189855,Ce(As3Os)4,0.0
mp-1190821,Y2Fe17C3,0.0
mp-1190994,NdHO,2.1056
mp-1191858,Tl4CuTeO6,0.503099999999999
mp-1192010,Tb3(GaNi3)2,0.0
mp-1192137,Er2TlCu3S5,1.4555999999999991
mp-1192549,Ba2U(Cu2Se3)2,0.0
mp-1192615,NdNi5Sn,0.0
mp-1192827,Eu8In3,0.0
mp-1193534,YBe13,0.0
mp-1193590,GdCo9Si4,0.0
mp-1194563,SrMn2V2O8,2.0499
mp-1194659,CsNbV2O8,2.4923
mp-1195130,BaSn(HO)6,3.6644
mp-1195211,LiNd(PN2)4,3.5156
mp-1195885,Er5Pt4,0.0
mp-1196009,Mn3Sb5(IO3)3,0.8270999999999991
mp-1196716,Dy(NO3)3,3.3516
mp-1196973,Tm2B6Ru,0.0
mp-1197631,La2Co14B,0.0
mp-1198017,Ho2B6Ru,0.0
mp-1198172,Dy5Zr3(Ni4As3)4,0.0
mp-1198687,La2ZrS5,1.1155
mp-1199522,Er2(Ni5B3)3,0.0
mp-1199869,U(Zn10Ru)2,0.0
mp-1200749,Zr5Ge4,0.0
mp-1201167,Cs2ZrCu3F12,0.013900000000000001
mp-1201314,Li8Be6P7O29,0.1894
mp-1201452,Nd4InSbS9,2.1557
mp-1201565,Ce(BRu)4,0.0
mp-1201906,Ba2GaBiS5,2.39
mp-1203144,Cs3LaN18,3.3890000000000002
mp-1203269,Ho11Sn10,0.0
mp-1203307,Rb6U2(Cu4S5)3,0.490799999999999
mp-1203831,Yb3Ge13Rh4,0.0
mp-12041,DySbPd,0.0
mp-1204364,Dy2Nb3Ge4,0.0
mp-1204657,K8Tl10Zn,0.10639999999999901
mp-1204970,Yb13Zn58,0.073099999999999
mp-1205649,LiSc(TlCl3)2,3.824
mp-1205921,CeSiOs2C,0.0
mp-1205954,LaSnIr,0.0
mp-1206134,Ba2CdOsO6,0.0
mp-1206466,SbPbBrO2,1.8827999999999991
mp-1206529,Rb(PIr)2,0.0
mp-1207128,Th3Pt5,0.0
mp-1207192,NdHSe,1.9425999999999992
mp-1207498,Zr6SiI14,1.084
mp-1207526,Zr6FeS2,0.0
mp-1207672,TmNiAs,0.0
mp-1207858,Y6Ti4Al43,0.0
mp-1208455,Tb4CdNi,0.06129999999999901
mp-1208663,SrP2PdO7,0.512999999999999
mp-1208781,Sm11(Fe2C3)6,0.0
mp-1208896,SmSbRh,0.0
mp-1209381,Pr3(Al3Ru)4,0.0
mp-1209983,Nd4CdIr,0.0
mp-1210535,Nd23Cd4Ru7,0.0
mp-1210867,Nd12Ni6Pb,0.0
mp-1210977,LiMn2TeO6,1.0638
mp-1211006,LuPtF7,2.224199999999999
mp-1211491,KEu(CO3)2,0.0
mp-1211761,K3Zr6BeCl15,0.9268999999999991
mp-1211783,KAgTeS3,1.8271000000000002
mp-1212039,K2CeBr5,0.1754
mp-1212191,HfNiAs,0.0
mp-1212201,HoAg(WO4)2,3.1338
mp-1212499,Hf5Ir3,0.0
mp-1212579,H3C3N5,3.489099999999999
mp-1212845,Er(Al5Fe)2,0.0
mp-1213116,CuTeSeCl,1.061999999999999
mp-1213221,ErGeRh2,0.020299999999999003
mp-1213359,ErIn2Pd,0.0
mp-1213457,Dy3NiGe2,0.0
mp-1213520,CsNb3(PO5)3,0.0
mp-1213658,CsPr6FeI10,0.21070000000000003
mp-1214064,CaIn2Rh,0.0
mp-1214139,Ce6Ni20P13,0.0
mp-1214269,Ca2Si3Pb3O11,3.2312
mp-1214414,BaP2PdO7,0.7202000000000001
mp-1214423,Ca3Lu2(GeO4)3,3.2916
mp-1216231,VW,0.0
mp-1216417,UCoNiGe2,0.0
mp-1216775,V10(SiGe)3,0.0
mp-1217060,Y10Ga3Co7,0.0
mp-1217259,Th2SbNO,0.4922
mp-1217454,Th2Mn17C2,0.0
mp-1217572,TbDy3Al8,0.0
mp-1217840,Tb(AlFe)6,0.0
mp-1218131,TaBi(P2O7)2,3.0519
mp-1218177,Ta3Os2,0.0
mp-1218741,Sr2NbFeO6,1.8391000000000002
mp-1219005,SmYCo4,0.0
mp-1219740,PrUN2,0.0
mp-1220683,NbSn6OF15,2.7552
mp-1220784,NaInSn2,0.341699999999999
mp-1220888,NaSr2(SnAs)6,0.0
mp-1221307,Na3Yb(PO4)2,0.0
mp-1221710,MnCr2(SeS)2,0.2818
mp-1221792,MnCd2TeO6,0.5739000000000001
mp-1222181,Mn12Pt4N,0.0
mp-1222537,LiZr5TlF22,5.2197
mp-1222743,Li2LuUS4,0.0
mp-1222896,LaNi3Rh2,0.0
mp-1222918,LaCeN2,0.0
mp-1222942,LaCu3Ni2,0.0
mp-1223084,LaGa2Pt3,0.0
mp-1223649,KNb2(PS6)2,0.0424
mp-1224210,InCuGeSe4,0.6493000000000001
mp-1224283,HfTaB4,0.0
mp-1224317,Hf2SiAs3,0.0
mp-1224730,Gd2CrSbO7,1.9649
mp-1225128,EuGa3Ag,0.0
mp-1225251,EuAgSn,0.0
mp-1226308,Cs4Sn21Hg2,0.2411
mp-1227265,Ca2PtAu,0.0
mp-1227376,Ca2AlP3Pt7,0.0
mp-1227542,Ce7Ti4(Se2O)6,0.0
mp-1227718,Ca2TiRuO6,0.0
mp-1227887,Ca3MgNi14,0.0
mp-1227892,BaNaVS4,1.501399999999999
mp-1232221,PmSe2,0.0
mp-1238823,Cs(CrS2)2,0.0
mp-12492,CsLuCdTe3,1.5415
mp-12651,MgPt,0.0
mp-12689,Er2InPd2,0.0
mp-1277164,Sr3CoRuO6,0.004699999999999
mp-1302296,V2Cu3NiO6,0.48810000000000003
mp-13311,SrAlGe,0.0
mp-13593,BaZnSnS4,2.271099999999999
mp-1513,Co9S8,0.0
mp-1523,ZrP2,0.0
mp-15363,Li6Yb(BO3)3,0.0
mp-15656,Si4Ir3,0.0
mp-15795,LiDySe2,1.7065000000000001
mp-16194,Rb2SiO3,3.434
mp-16585,HgB4O7,2.5834
mp-16668,Yb2Cu4As3,0.0
mp-16691,SrLi2Ti6O14,2.8381
mp-16765,Zr2Te2P,0.0
mp-16859,Ba6Ga5N,0.0
mp-17143,BaGd2O4,3.1092
mp-1755,ZnAu3,0.0
mp-17588,AgRuF7,0.0
mp-17817,Ca3(GeP2)2,0.7612000000000001
mp-18193,CsTe7Mo6,0.0
mp-18232,Ce2Al3Ge4,0.0
mp-18496,CsMoP2O7,3.788999999999999
mp-18645,Sc5(In2Rh)2,0.0
mp-18664,K4Ta2S11,1.7013
mp-18700,K4SiO4,3.2937
mp-18719,KLu(WO4)2,3.2782999999999998
mp-1885,AlIr,0.0
mp-19031,RbVO3,3.075999999999999
mp-19072,Si(NiO2)2,0.0
mp-19093,Ba2UNiO6,1.6511
mp-19169,PrVO4,3.0347
mp-1984,TaS2,0.0
mp-19887,Nb(FeGe)6,0.0
mp-19940,VAs,0.0
mp-19961,CeIn5Co,0.0
mp-20193,DyCo3B2,0.0
mp-20230,PuOF,0.0
mp-20350,DyCoC,0.0
mp-20352,Ba3In2O6,0.8906000000000001
mp-20422,KMnP,0.0
mp-20449,CeInIr,0.0
mp-20525,CuSO4,0.0
mp-2057,DyB2,0.0
mp-20624,La2(Zn2Ge)3,0.0
mp-20647,Nd2ScSi2,0.0
mp-20671,UCoGe,0.0
mp-20680,Ce4Sb3,0.0
mp-20697,ZrNiSb,0.0
mp-20698,LiCoAs,0.0
mp-20846,CaIn2Ir,0.0
mp-20961,EuPd3S4,0.0
mp-21024,SrIn2Pd,0.0
mp-21053,U(FeP3)4,0.0
mp-21073,HoGeIr,0.0
mp-21165,PdSe,0.0
mp-21197,NdIn3,0.0
mp-21234,EuZnSi,0.0
mp-2126,HfIr3,0.0
mp-21332,LiGdO2,3.2842000000000002
mp-21340,HfGePt,0.0
mp-21461,Rb2PbO3,1.2742
mp-21792,Na5CoO4,1.4522
mp-2195,LuMg,0.0
mp-22708,Th3Co3Sb4,0.0
mp-22735,Ca2Sn,0.05959999999999901
mp-2291,Si2Ni,0.0
mp-23040,Ca2PI,1.802099999999999
mp-2317,LaNi5,0.0
mp-24051,ErHCl,0.0
mp-2466,ErAu2,0.0
mp-2602,NdAs,0.0
mp-27219,Mg(SbO2)2,2.5511
mp-27880,Nb3Cl7,0.9757000000000001
mp-28017,Na8Ti5O14,3.507
mp-28268,PtI3,0.420199999999999
mp-2845,SbPt,0.0
mp-28536,BaSe2O5,3.446799999999999
mp-28572,LaBr2,0.5893
mp-28660,Ca2Cu6P5,0.0
mp-28840,Y4RuI5,0.125799999999999
mp-29204,P4(S2O)3,3.2713
mp-29607,Ag(TeMo)6,0.0
mp-29613,CsEu2I5,1.186599999999999
mp-29704,Cs(SO2)2,2.2331
mp-29895,Rb3Bi2I9,2.4206
mp-29973,SrN,0.0
mp-30012,BiKrF7,2.3557
mp-30022,Eu(AlCl4)2,1.6998000000000002
mp-30377,ErPbAu,0.0
mp-30559,LaCo13,0.0
mp-30843,Sr7Pt3,0.0
mp-31010,Ca2As3,0.165799999999999
mp-31185,MnAlFe2,0.0
mp-31225,Pr2Mo2C3,0.0
mp-31430,Na2In,0.0
mp-31755,Ta2FeO6,2.3557
mp-3219,EuPO4,0.0
mp-3345,Cu3AsS4,0.039199999999999006
mp-356,Nd2Co17,0.0
mp-3995,La(CuSi)2,0.0
mp-4138,Rb2CO3,3.2867
mp-4248,YCoC2,0.0
mp-4474,V4GaS8,0.0
mp-4487,Er(MnGe)2,0.0
mp-4810,Pr(CoGe)2,0.0
mp-4893,Hf2SnC,0.0
mp-505513,Nd(Re2Si)2,0.0
mp-506,MgPd,0.0
mp-510036,Fe2Cu(P2O7)2,0.0
mp-5150,HoSi2Ni,0.0
mp-531611,Mg(AlB14)2,0.7351000000000001
mp-540986,Nd2Ni7P4,0.0
mp-541611,La4Ru6O19,0.0
mp-541817,NbSeI3,0.6478
mp-542289,HgNO3,2.5913
mp-542493,Sc5(Co2Si5)2,0.0
mp-542614,VCo3,0.0
mp-542718,Er2Ni12As7,0.0
mp-542752,Ce4Co2Sn5,0.0
mp-5477,Na5NbO5,2.6377
mp-553970,CsGeBiS4,2.0174
mp-554492,NdCu(MoO4)2,1.9650999999999992
mp-554887,KUNbO6,1.9425999999999992
mp-555010,Sm2MnNiO6,0.0
mp-555315,Zr3Cd3AgF20,0.284699999999999
mp-555764,BaNb10SiO19,0.0
mp-555794,NaMg2V3O10,2.818
mp-556473,Cr2PBrO4,2.2997
mp-556633,Na3VF6,2.5442
mp-557143,Tl2Cu(CO3)2,0.161699999999999
mp-557533,Cs2TlVF6,0.0
mp-557693,CsZnPO4,3.9692
mp-558122,GdSClO4,1.9540000000000002
mp-558386,Ga2Te2MoO10,3.1876
mp-558588,BaPt2S3,1.329999999999999
mp-559237,Nd3Si2S8Br,2.664
mp-559509,HgSb3XeF17,2.592799999999999
mp-559722,Hg3(NO4)2,0.8528
mp-559786,NaAs4BrO6,3.049699999999999
mp-560175,Na4Th(MoO4)4,3.9494
mp-560341,EuSi2(NO)2,0.5022000000000001
mp-560699,VBiPbO5,2.9338
mp-561173,Y3CuSiS7,1.7465000000000002
mp-562569,CsPPbS4,2.340799999999999
mp-567220,Hf2SbP,0.0
mp-567545,K(In3Au2)2,0.0
mp-567731,Nb3Se10Br3,1.2232
mp-567735,Nd5Si3,0.0
mp-567849,Er2Al3Co,0.0
mp-567883,Ti4CoBi2,0.0
mp-5682,Th(SiNi)2,0.0
mp-568685,TmAlRh,0.0
mp-569159,Yb8Ge3Sb5,0.0
mp-569257,Ca3(B3Rh4)2,0.0
mp-569833,Zr2Ga,0.0
mp-570141,Sm2(PPt2)3,0.0
mp-570564,Ce3CuGeSe7,0.0
mp-570988,La2PBr2,0.0
mp-571440,K2CuBr3,2.3444000000000003
mp-571445,HfHg3(SeCl3)2,2.5702
mp-571552,Lu(CoGe)2,0.0
mp-5756,Cu3PSe4,0.0475
mp-581217,Cs2Nb4O11,2.9879
mp-581285,LiGd6B3O14,2.913999999999999
mp-581575,EuGeS3,0.0
mp-581831,Gd5CuBi3,0.0
mp-581951,Zn53Ni16,0.0
mp-605839,Li2B2Rh3,0.0
mp-607454,AlC3(NCl2)3,2.6079
mp-608461,PaCl2O,0.0
mp-611623,U(CoP)2,0.0
mp-6188,LuNiBC,0.0
mp-625,Mg3Ru2,0.0
mp-625402,Sm(HO)3,3.7509
mp-630820,Yb4Cu2Sn5,0.0
mp-636403,PuNi3,0.0
mp-637182,Gd3Al7Ag2,0.0
mp-640340,Ca4MgAl3,0.0
mp-643735,H8Pd(NCl3)2,1.0983
mp-646920,K5(AsPb)3,0.8373
mp-647096,Gd3S3N,1.0503
mp-6488,KTiAsO5,3.0609
mp-652399,Li(FeGe)6,0.0
mp-657233,EuTlPS4,0.0785