material_id,pretty_formula,band_gap
mp-675543,Bi2PbSe4,0.47000000000000003
mp-676247,NaYbF4,0.0
mp-680269,Er2Fe3Si5,0.0
mp-698480,Sb4H2SO10,3.3689999999999998
mp-706630,B5H7,3.558
mp-720583,Na3B3H2O7,4.5440000000000005
mp-722862,CdH3NO5,3.2464
mp-7475,La2S3,1.0358
mp-752752,LiMnF6,0.0
mp-757688,BaNb8O14,0.3304
mp-758316,La10Bi8O27,1.2729
mp-761035,AgRuO4,0.0
mp-762088,K2OsO5,1.6619000000000002
mp-765543,Sr3(RhO2)16,0.0
mp-768813,Rb4SiO4,0.0
mp-770406,Sm2WO6,3.7485
mp-780075,Hf2N2O,1.9855
mp-780738,H4WNCl6,0.0
mp-7875,Ba(MgSi)2,0.0
mp-7977,CsSmO2,2.8983
mp-8515,BaSm2PdO5,2.2083
mp-858,TmAl2,0.0
mp-861599,PuSnAu2,0.0
mp-861928,EuMgHg2,0.0
mp-861935,CaSnRh2,0.0
mp-861951,LiTaRh2,0.0
mp-861976,PaGaFe2,0.0
mp-861982,PaGa3,0.0
mp-862733,Pm2ZnSi,0.0
mp-862762,Pr3Co,0.0
mp-862817,PaHgAu2,0.0
mp-862822,PaSnPd2,0.0
mp-862864,Pa3Ge,0.0
mp-862911,Ti2CoTc,0.0
mp-862942,NaPmAu2,0.0
mp-863702,Er2MgIn,0.0
mp-864792,Nd3(CuSn)4,0.0
mp-864947,ZrSnRh2,0.0
mp-864953,MnV2Cr,0.0
mp-865255,LuNbRu2,0.0
mp-865326,Lu2PdPt,0.0
mp-865506,VSiOs2,0.0
mp-865507,VSiRu2,0.0
mp-865536,YbZrRh2,0.0
mp-865664,TiRe2W,0.0
mp-865679,TiSnPd2,0.0
mp-865680,TiSiOs2,0.0
mp-865759,YbHfRh2,0.0
mp-865867,Li2YTl,0.0
mp-865908,Yb2HgPb,0.0
mp-865928,Ti2TcPt,0.0
mp-865979,AcMgCd2,0.0
mp-865982,TmCdPd2,0.0
mp-865990,Y3Al7Cu2,0.0
mp-866041,Ga2IrRu,0.0
mp-866375,TiFe2Ge,0.163999999999999
mp-867157,SmCdHg2,0.0
mp-867244,LiGdAu2,0.0
mp-867245,LaAgHg2,0.0
mp-867266,CaMgTl2,0.0
mp-867814,LaTlAu2,0.0
mp-867877,LiCdAu2,0.0
mp-8975,Hg3(AsO4)2,0.988499999999999
mp-936,Hg4Pt,0.0
mp-9416,La(CuO2)2,0.0
mp-9522,K(ThSe3)2,0.0
mp-953,NbZn3,0.0
mp-9607,Li2UO4,2.070099999999999
mp-9632,CsReF6,0.0
mp-972199,CsTbS2,2.2586999999999993
mp-9769,BaAs2Pt,0.0
mp-976931,LuAlAg2,0.0
mp-977396,TbMgRh2,0.0
mp-9805,KYb(CO3)2,0.0
mp-983427,PmDyHg2,0.0
mp-983581,Er2PdRh,0.0
mp-9848,PrP5,0.040499999999999
mp-985704,Ce2ReC2,0.0
mp-989532,Rb2TlInF6,3.8279
mvc-15677,ZnBiF6,0.0
mp-10009,GaTe,0.897999999999999
mp-1008865,NdCd2,0.0
mp-1013550,Ca3SbP,0.6583
mp-1014219,HfZn,0.0
mp-1018146,GdCoC2,0.0
mp-1018779,Li3PrSb2,0.0
mp-1019052,ReN,0.0
mp-1019608,Cs3BO3,2.4689
mp-1021506,La(P3Os)4,0.0
mp-1025154,UTl2O4,1.5254999999999992
mp-1025296,SnPPd5,0.0
mp-1025526,LuAu3,0.0
mp-1029719,Ca3MoN3,0.0
mp-1029878,SrMnN2,0.0
mp-10668,Yb(SiAg)2,0.0
mp-1068786,InCo3N,0.0
mp-1070572,ThSi3Os,0.0
mp-1070755,Y2GaNi2,0.0
mp-1071904,PrCu2,0.0
mp-1072082,YbFeSi,0.0
mp-1077034,NdMgSn,0.0
mp-1077453,HfCuGe,0.0
mp-1077596,EuInPt4,0.0
mp-1077944,HgPd5Se,0.0
mp-1078551,Ba2NdMoO6,1.1069
mp-1078635,ScGeOs,0.0
mp-1078704,ErNiBC,0.0
mp-1078756,ZrGaRh,0.0
mp-1078868,Sr2MgReO6,0.0
mp-1079135,Nd2CdGe2,0.0
mp-1079178,CeCoGe2,0.0
mp-1079278,Sr(AlAu)2,0.0
mp-1079387,PrInNi,0.0
mp-1079406,Eu(SnPd)2,0.0
mp-1079437,FeB4,0.0
mp-1079518,Er(SiPt)2,0.0
mp-1079553,CeInRh,0.0
mp-1079626,TbNiBC,0.0
mp-1079880,ErPdPb,0.0
mp-1079890,Al2CuIr,0.0
mp-1079997,VPt8,0.0
mp-1080085,PrInCu,0.0
mp-1080089,TaFeB,0.0
mp-1080181,Pr2InNi2,0.0
mp-1080525,FeB,0.0
mp-1080594,DyInCu,0.0
mp-1080614,Cs2Sb2Pt,0.9645999999999991
mp-1084826,Nd2Co3,0.0
mp-1092291,Sm(GePt)2,0.0
mp-1094591,Li3Mg,0.0
mp-1095307,CeSbAu,0.0
mp-1095427,HfCoP,0.0
mp-1095607,YGePt,0.0
mp-1101094,Cs2CeCl6,1.709099999999999
mp-1101769,ThReB4,0.0
mp-1101892,CeAs2,0.07210000000000001
mp-1101926,EuAs,0.0
mp-1102053,CeGaPd,0.0
mp-1102313,YbSbIr,0.0
mp-1102609,BaSiPd,0.0
mp-1103248,TiSiIr,0.0
mp-1103324,GdPO4,3.2981
mp-1103391,Tb2Al,0.0
mp-1103514,Eu2Cu6P5,0.0
mp-1103655,YNiGe,0.0
mp-1104221,Ho(Ni2P)2,0.0
mp-1104269,Er(Al2Cu)4,0.0
mp-1104514,Lu3Ge4,0.0
mp-1105286,Eu3Pd2,0.0
mp-1105562,Pr(Co2B)6,0.0
mp-1105614,NdScS3,1.859299999999999
mp-1105654,TiSiOs,0.0
mp-11219,LuB2,0.0
mp-11578,VZn3,0.0
mp-11593,CeB2Ir3,0.0
mp-1173526,Nb3NiS6,0.0
mp-1179,DyNi5,0.0
mp-1181012,Li4Re6S11,1.732799999999999
mp-1183053,AcGaO3,2.8966000000000003
mp-1183120,Ac2CuRu,0.0
mp-1183308,BaMg,0.0
mp-1184081,Er2RuAu,0.0
mp-1185089,LaPrTl2,0.0
mp-1185507,LuAgHg2,0.0
mp-1186298,NdCdHg2,0.0
mp-1186435,Pm2AlGa,0.0
mp-1186599,NdMg149,0.193999999999999
mp-1186766,Ta2MoIr,0.0
mp-1187243,TaOs3,0.0
mp-1188001,Zr2TcIr,0.0
mp-1188272,Sr5Pb3F,0.0
mp-1188286,Tb2Ge5Rh3,0.0
mp-1188590,TaReSi,0.0
mp-1188800,Sc3P,0.0
mp-1188998,NpPd3,0.0
mp-1189073,ScB2Os,0.0
mp-1189318,Tm2Se3,1.3705
mp-1189484,Eu3Ge5,0.0
mp-1189601,Tm2Si5Ni3,0.0
mp-1189647,Ba(FeSb3)4,0.0
mp-1190033,Tb7MnI12,0.0
mp-1190145,Na2In2GeS6,2.4907
mp-1190589,Tm2Mn12P7,0.0
mp-1190617,Dy2Mn12P7,0.0
mp-1191058,Dy8Ga3Co,0.039299999999999
mp-1191367,Pr3CoGe2,0.0
mp-1191406,Gd3CuSiS7,1.168299999999999
mp-1191578,Sm3(SiNi3)2,0.0
mp-1192541,Ho3Te3N,1.1431
mp-1192828,Ca3(Cd2Pt)4,0.0
mp-1193520,Sr(ErSe2)2,1.4326
mp-1193606,Cs3GeTe3,1.1962
mp-1194583,Ba3Sb2Se7,1.2183
mp-1195239,B3Pb6BrO10,2.8245
mp-1195350,CsCdInTe3,1.2066
mp-1195621,Rb2U(Si2O5)3,0.569199999999999
mp-1196229,La13(B2O13)2,0.0
mp-1196326,Sm6Fe13Sn,0.0
mp-1196887,Ba4SiSb2Se11,0.895
mp-1196893,B3Pd16,0.0
mp-1196912,CuP4Se3Cl,1.6505
mp-1197369,K16Na9(Tl6Cd)3,0.0
mp-1197848,Cs5As5Se9,1.2854
mp-1199166,Be17Os3,0.0
mp-1199218,Li3As7(H3N)13,1.8092000000000001
mp-1199915,Lu2B6Os,0.0
mp-1200142,KPr(PO3)4,5.399199999999999
mp-1200512,Er6Al43W4,0.0
mp-1201985,RbY(BH4)4,6.133599999999999
mp-1202233,Fe2P3(O3F)3,2.5033
mp-1202245,Yb3(SnPd)2,0.0
mp-1202698,Nd(Ni2B)6,0.0
mp-1204900,Sc4FeBr5,0.5478000000000001
mp-1205111,RbOs2O9,0.9617
mp-1205180,Tm3C4,0.0
mp-1205402,Ba3SmIr2O9,0.0
mp-1205611,Ba2UCrO6,0.9559000000000001
mp-1205703,TmSiRu2C,0.0
mp-1205953,HoBiRh,0.0
mp-1206026,Ba2DyMoO6,0.0
mp-1206406,K(AsIr)2,0.0
mp-1206500,Sc6MnTe2,0.0
mp-1206540,TbMgTl,0.0
mp-1206651,LaCoSi2,0.0
mp-1206961,Yb(ZnSi)2,0.0
mp-1207267,Pr4CoI5,0.0
mp-1207475,YbZnRh,0.0
mp-12077,Y(FeB)2,0.0
mp-1207989,Y12InNi6,0.0
mp-1208257,Ti4CrBi2,0.0
mp-1208280,TiAgPO5,2.4369
mp-1208500,Tb6Ta4Al43,0.024399999999999002
mp-1208951,Sr(AuF6)2,1.193
mp-1208961,SmIn2Cl5,2.814
mp-1209249,Sm2Hf2(MoO4)7,3.288599999999999
mp-1209368,Rb3HoV2O8,3.3846
mp-1209441,Rb2MnI4,2.0997
mp-1209687,PrGePd,0.0
mp-1209795,Pr2(Al3Ir)3,0.0
mp-1209961,NaTbCl4,4.745999999999999
mp-1210295,NaCe(CO3)2,0.20750000000000002
mp-1210844,Na3Pr(PO4)2,4.9068000000000005
mp-1211377,KSbCl6,1.9967000000000001
mp-1211812,K4Zr6FeBr18,1.3263
mp-1212153,La12(ReC3)5,0.0
mp-1212691,Hf2InPd2,0.0
mp-1213204,Dy3(P3Pd10)2,0.0
mp-1213358,Er6Ni20P13,0.0
mp-1213571,CsNpMoO6,0.34600000000000003
mp-1213681,CsDy(WO4)2,3.469799999999999
mp-1213769,Cr3B7O13F,3.188999999999999
mp-1213907,Ce2(Ga3Rh)3,0.0
mp-1214168,Cs2CoBr4,0.7282000000000001
mp-1214259,CdP14Pb,1.3228
mp-1214272,Cd4As2Cl3,0.8937
mp-1214575,Ba5Mn3O12F,1.8711000000000002
mp-1214964,Ca21(Cd2Bi9)2,0.15200000000000002
mp-1216283,Y6Ga17Pd5,0.0
mp-1216513,V9Ga4Fe3,0.0
mp-1217250,Ti10(GaSb)3,0.0
mp-1217295,Th2Si3Ru,0.0
mp-1217323,ThUC2,0.0
mp-1217418,Te4Mo2Ru,0.158199999999999
mp-1217522,TbTaTiO6,3.150699999999999
mp-1218652,Sr5V3O13,0.5627
mp-1218991,SmZnCuP2,0.0913
mp-1218998,SmYNi2,0.0
mp-1219183,Sm2Si3Pt,0.0
mp-1219240,ScPaO4,2.7388000000000012
mp-1219820,Sr21Hg109,0.0
mp-1219835,Rb4Sn21Hg2,0.2126
mp-1219954,NiSb6Ru,0.073299999999999
mp-1220028,PrH3(SO4)3,5.303199999999999
mp-1220068,Rb2U6Pt4Se17,0.0
mp-1220132,Pr9Ga5S21,1.598999999999999
mp-1220426,NbNi6Mo,0.0
mp-1220634,Nb2Tc,0.0
mp-1220895,Na6B18Se17,2.1085
mp-1221164,Na5U5O18,0.0
mp-1221310,Na2Sr3As4,0.567299999999999
mp-1222143,Mg3InAg4,0.0
mp-1222310,Lu2C,0.0
mp-1223396,KNbWO6,3.0678
mp-1223846,Ho4SiGe3,0.0
mp-1224236,K3W2(O2F3)2,1.3448
mp-1224324,Hf2Al3Ag,0.0
mp-1224639,GdAlZnGe2,0.0
mp-1224706,Gd2GeMoO8,2.5183
mp-1225103,Er2(B2Rh3)3,0.0
mp-1226072,Co4H,0.0
mp-1226352,Cr2Ir2C,0.0
mp-1226593,CeY(GaPd2)2,0.0
mp-1226653,CePt2Au3,0.0
mp-1227132,La3Pb3I13O40,2.9264
mp-1227337,Ca6Al7O16F,3.8708
mp-1228081,BaHgPb,0.0
mp-1228855,CsRb2Au7,0.0
mp-1229097,AlCrFeO4,1.5202999999999989
mp-1229301,Ca4Er2(Sn5Pt3)3,0.0
mp-1232280,SmS2,0.5375000000000001
mp-12495,CsTbCdTe3,1.5409000000000002
mp-12540,Zr2Mo(PO6)2,3.1726
mp-12659,Mn2Nb,0.0
mp-12760,Zr6Al2Co,0.0
mp-12817,Tb(Zn10Fe)2,0.0
mp-12884,Hf5Te4,0.0
mp-12951,ZrGaAu,0.0
mp-1298,KAu5,0.0
mp-13090,YMgAl,0.0
mp-13159,GdZnGe,0.0
mp-13164,Ti2Pd,0.0
mp-13323,Ba2EuNbO6,0.0
mp-13341,YB4Rh,0.0
mp-13510,Ho4In(NiGe2)2,0.0
mp-1359,NbIr,0.0
mp-13935,Ba2YbReO6,0.0
mp-1505,TmMg,0.0
mp-1529,LuIr,0.0
mp-1539,ZrTe,0.0
mp-15432,K2Ga2As3,1.0329
mp-16097,CeSc3(BO3)4,0.3168
mp-16349,LiNi2Ge,0.0
mp-17188,U(Al10V)2,0.0
mp-17651,HoPtF7,2.318699999999999
mp-18045,KEuPO4,0.0
mp-18655,Ba(SiRh)2,0.0
mp-1866,KO2,0.0
mp-18932,LiPr(WO4)2,3.616
mp-18969,FeCO3,0.0
mp-18994,CsMnO4,2.231
mp-19075,K2SrV4O12,3.0417
mp-19084,BaMg2V2O8,3.5091
mp-19117,Li4MoO5,2.839399999999999
mp-1935,BaMg2,0.0
mp-19403,Ba2CaMoO6,2.2862
mp-1975,TmN,0.30600000000000005
mp-19770,Fe2O3,0.0
mp-19848,PrCuSb2,0.0
mp-19895,NiSb2,0.0
mp-20022,CeGeIr,0.0
mp-20163,Th2S3,0.0
mp-20271,LaAgSb2,0.0
mp-20336,USn3,0.0
mp-20490,NdNiSn,0.0
mp-20666,SmIn2Rh,0.0
mp-20806,Gd(CuGe)2,0.0
mp-21017,Y3PbC,0.0
mp-21049,GdMg2,0.0
mp-21203,TbCoSi,0.0
mp-21288,La2InGe2,0.0
mp-21417,Eu(GeRu)2,0.0
mp-21424,TbNiGe,0.0
mp-2154,CeP,0.0
mp-21606,TiMnSi2,0.0
mp-21623,ThFe5P3,0.0
mp-22012,Tb(MnGe)6,0.0
mp-22014,Sc2SiB2Ir5,0.0
mp-22050,Hf2In5,0.0
mp-22162,YbNiSn,0.0
mp-2228,ErMg,0.0
mp-22458,Sr2MnGe2O7,0.002199999999999
mp-22760,La(MnGe)2,0.0
mp-22780,BaIn2Ir,0.0
mp-23274,Ta2Cl5,0.0
mp-23378,EuAgBi,0.0
mp-23390,RbCdCl3,3.5695
mp-2345,Dy2O3,3.936499999999999
mp-23738,RbMgH3,2.546599999999999
mp-2391,YbPd3,0.0
mp-2580,NbB,0.0
mp-27181,KAuCl4,1.4257
mp-27332,Cs3MnBr5,2.715
mp-27358,Se2O5,3.0247
mp-27614,Ca2V2O7,2.9777
mp-27616,ErSCl,2.9332000000000003
mp-28267,Na7Al2Sb5,0.326999999999999
mp-28327,LiGaBr3,2.9371
mp-28437,RuClF8,1.1268
mp-28455,Hg2P2O7,1.7381000000000002
mp-28628,Li3FeN2,0.0
mp-28745,Nb2Te6I,0.636099999999999
mp-28826,Gd3(MnC3)2,0.0
mp-29052,Cd(W3Br7)2,2.0591
mp-29190,Te4MoBr,0.9629000000000001
mp-29420,Hf(Se2Cl3)2,1.3131
mp-29745,Na2Mn2Se3,0.0
mp-30101,Ba4Si3Br2,0.43209999999999904
mp-30198,Ba4Ga2O7,3.2427
mp-30711,Nd2Zn17,0.0
mp-3075,TlGeS2,1.7633
mp-30784,Mg2Zn11,0.0
mp-30811,Ni4W,0.0
mp-30967,Tb12Co7,0.0
mp-31147,BaZnSi,0.0
mp-3328,Ho2Al3Si2,0.0
mp-3388,U(SiRu)2,0.0
mp-3407,TlCr5Se8,0.0
mp-362,Ni3S2,0.0
mp-3739,NdCuSe2,0.7529
mp-389,SiPd,0.0
mp-3891,EuTl2Pd,0.0
mp-3925,Co2CuS4,0.0
mp-4019,CaTiO3,2.3053
mp-4302,Nd(NiGe)2,0.0
mp-4341,Pr(P3Ru)4,0.0
mp-4415,Ho(CoGe)2,0.0
mp-4851,Sr(GaO2)2,3.0743
mp-4865,Er(NiGe)2,0.0
mp-4878,ZrGeSe,0.0
mp-504451,Cs3MnCl5,2.9004000000000003
mp-504924,Cs2Te2O5,2.6609
mp-505025,BaPuO3,0.0
mp-505132,Ta3Te14Pd3,0.0
mp-505682,Dy2Te,0.0
mp-505721,Rb3VS4,1.698599999999999
mp-510418,Cu5Si2S7,0.0
mp-510503,Nd5Sn3,0.0
mp-510508,Ba2(IrO3)3,0.0
mp-510580,NdNiSnH,0.0
mp-510674,Eu3NbO7,0.0
mp-510724,As3Pb5ClO9,2.668399999999999
mp-531948,Ga6SnTe10,0.8614
mp-540547,Sm2Co7,0.0
mp-540585,BaGa2(GeO4)2,3.2508
mp-540949,Ba3SrNb2O9,3.4298
mp-541096,CsUNbO6,2.1254
mp-541740,TaPO5,2.9747
mp-541743,Ba3YbRu2O9,0.151699999999999
mp-542888,La3AgSnS7,1.9734999999999991
mp-543041,FeAs(H2O3)2,2.8777
mp-553918,Eu2B5ClO9,0.8729000000000001
mp-554040,CuSeO4,0.0
mp-554213,DyMoO4F,3.7772
mp-554548,BaMo2Se2O11,2.6347
mp-554817,Ba3CaSb2O9,3.1711
mp-555476,Na3OsO5,0.113499999999999
mp-555871,Na2CuSbS3,1.601499999999999
mp-555940,Dy2Te5O13,2.982599999999999
mp-556349,Rb2MoSeO6,3.1304
mp-557105,K4V2O7,3.476099999999999
mp-557225,Cu6GeWS8,0.831199999999999
mp-557655,GdTlS2,1.139299999999999
mp-557926,CdAs2(XeF5)4,2.369399999999999
mp-558135,Ti4S8Cl6O,1.6005
mp-558237,NaZnPO4,3.84
mp-558570,Na3FeO3,2.2672
mp-558739,RbSb2Au3S5,0.7259000000000001
mp-558871,SrVClO3,2.189
mp-559014,Nd4GeO8,3.500899999999999
mp-559462,CrHg3(PbO4)2,1.8661999999999992
mp-559644,K2Cu(PS3)3,1.928999999999999
mp-559711,Rb2Na2SiO4,3.0831
mp-559739,RbVOF3,2.7424
mp-560016,NaNb2PO8,1.977199999999999
mp-560115,Rb3Mo12PO40,2.2622
mp-560469,Ba6Nb14Si4O47,0.0
mp-560573,La2Te3MoO12,3.582
mp-561099,Ba4Os6ClO18,0.0
mp-561121,CsTi3P5O19,2.7959
mp-561407,RbGaS2,2.468099999999999
mp-561492,ZnSb2(XeF4)6,2.5330999999999992
mp-562435,Na10Co4O9,1.3618000000000001
mp-5659,Ti3SiC2,0.0
mp-565929,K2EuTa5O15,0.0
mp-567229,LuAlSi,0.0
mp-567276,TaV2,0.0
mp-567519,NpBr3,0.0
mp-568130,NdAlPt,0.0
mp-568380,Tl5Se3,0.0
mp-568474,Ba(CuP2)2,0.0
mp-568476,BiPd2Pb,0.0
mp-568925,Ni2Sn4Au,0.0
mp-568944,Yb5Au3,0.0
mp-569708,TiPt3,0.0
mp-569739,ErAl9(Fe2Si3)2,0.0
mp-570193,NaAuCl4,1.6074000000000002
mp-570403,TbCd3,0.0
mp-570959,Dy2CdSe4,0.5809000000000001
mp-572741,CsUP3O11,2.3902
mp-5800,Sm3Ga5O12,3.1576
mp-583630,Ba2SnTe5,0.0
mp-583762,Na3W3Cl13,0.918
mp-5970,Ba(CuS)2,0.9054000000000001
mp-6224,LiScSiO4,4.6164000000000005
mp-637736,ZrGeRu,0.0
mp-640041,NbZn16,0.0
mp-640444,Tb5NiPb3,0.0
mp-643265,ReF7,1.995699999999999
mp-652663,K2PtS15,1.9164999999999992
mp-669309,CsY10(C2I9)2,0.217399999999999
mp-669364,Cs3Re3(SI)4,2.4394
mp-672254,CaPdPb,0.0
mp-675,ZrW2,0.0
mp-6761,NaTi2(PO4)3,2.4276
mp-680421,Ce6S4BrN3,0.0
mp-680610,Pr4In21Pd10,0.0
mp-7366,Sr(AgSn)2,0.0
mp-7396,Li3Tl,0.0
mp-7493,CaSb2,0.0
mp-752676,TiBi2O5,2.5795
mp-766835,InP(H2O3)2,3.8611
mp-770559,Dy2WO6,3.628199999999999
mp-771082,Li4CrFe3O8,1.7176
mp-775149,Ti(SO4)2,2.2235
mp-8578,Sc3InC,0.08179999999999901
mp-861941,Ho2PdRu,0.0
mp-862369,Sc2IrRu,0.0
mp-862589,Re3Pt,0.0
mp-863677,PmCu3,0.0
mp-863735,ErRh2Pb,0.0
mp-864623,ZnCuAu2,0.0
mp-864770,Ta2MoOs,0.0
mp-865126,NaTlPd2,0.0
mp-865206,TmCdRh2,0.0
mp-865241,TmNbOs2,0.0
mp-865379,LuSnRu2,0.0
mp-865404,Tm3ReB7,0.0
mp-865448,TiGaRu2,0.0
mp-865473,VBr3,0.0
mp-865788,TmPaTc2,0.0
mp-865868,LiZrRh2,0.0
mp-865991,YbSmZn2,0.0
mp-866086,MgSiIr2,0.0
mp-866120,Tm2TlAg,0.0
mp-866183,Ti2ZnRe,0.0
mp-867111,LiDy2Ru,0.0
mp-867274,Be2CoIr,0.0
mp-867731,Cd2PbO4,0.0
mp-867771,TaCuRh2,0.0
mp-867794,Sc2CuIr,0.0
mp-867891,ErCl3,3.7094
mp-8919,ErPPd,0.0
mp-922,CoPt3,0.0
mp-9503,BaDyCuTe3,0.5186000000000001
mp-9584,Nd(BIr)4,0.0
mp-972205,V2MoOs,0.0
mp-974038,Ni2W4C,0.0
mp-974435,Re3N,0.0
mp-975788,Pr2AgHg,0.0
mp-976142,PrDyTl2,0.0
mp-977423,Yb2ZnRh,0.0
mp-977555,MgNbRh2,0.0
mp-978950,Sm2ZnIn,0.0
mp-981699,SmZnIn,0.0
mp-982613,Pm2InHg,0.0
mp-983429,PmDyRu2,0.0
mp-984549,PmDyRh2,0.0
mp-985439,BaPAu,0.0
mp-989583,Rb2LiInCl6,2.8293
mp-9938,Hf2Si,0.0
mvc-10636,BaMoF7,2.0481
mvc-15846,CaWF6,3.74
mp-10000,Hf2S,0.0
mp-1002133,LaGa,0.0
mp-10056,UCo3B2,0.0
mp-10115,ThB2Ir3,0.0
mp-1018047,LaSn,0.0
mp-1018176,GdFeC2,0.0
mp-1018725,HoFeSi,0.0
mp-1018757,LaZnGa,0.0
mp-1019277,SrHgPb,0.0
mp-1023928,MoWSe4,1.2829000000000002
mp-1024986,CeSbPd,0.0
mp-1025266,Tb2Cr2C3,0.0
mp-1025360,Na2Ti2As2O,0.0
mp-10457,HfSiPd,0.0
mp-10559,Gd3AuO6,1.5997
mp-1065301,TmGa,0.0
mp-1066566,YNiC2,0.0
mp-1070860,EuHCl,0.4213
mp-10738,SmPPt,0.0
mp-1076970,LaScSb,0.0
mp-1077351,ZrGaCu,0.0
mp-1077791,ZrSc2,0.0
mp-1077933,GdCu2,0.0
mp-1078725,Ba2UZnO6,1.808599999999999
mp-1078739,YAgSb2,0.0
mp-1078760,DySnPt,0.0
mp-1079273,La3Sn7,0.0
mp-1079695,V3GeN,0.0
mp-1079811,SmAu,0.0
mp-1079846,ThAlIr,0.0
mp-1079860,HfGaNi,0.0
mp-10873,ScAlAu2,0.0
mp-10924,Mg(Co3P2)2,0.0
mp-1095164,Gd(BRu)2,0.0
mp-1095213,BaFe2S2O,0.0
mp-1095278,BaTbAgTe3,0.7735000000000001
mp-1095305,NdSbAu,0.0
mp-1095459,CeNi4B,0.0
mp-1101401,RbPrO2,3.4418
mp-1102202,PrSb2,0.0
mp-1103172,CaCdPd,0.0
mp-1103718,Al(VS2)4,0.0
mp-1104289,LuB12,0.0
mp-1104331,Li2Nd2Ge3,0.0
mp-1104571,Ba6Re2N6O,0.0
mp-1104774,Er3Pd4,0.0
mp-1105253,Gd(Re2Si)2,0.0
mp-1105556,La(As3Os)4,0.0
mp-1105882,Tb4Sb6Rh7,0.0
mp-11069,YbAgSn,0.0
mp-1112961,CsInCl3,1.8017
mp-11178,SrCeN2,1.3186
mp-11184,Nd3Sb4Pt7,0.0
mp-11286,CaHg,0.0
mp-11398,Ga3Ni5,0.0
mp-11428,GdPt,0.0
mp-11537,NbAlRu2,0.0
mp-11705,Dy2Fe2Si2C,0.0
mp-1179727,RhSCl5,1.5419
mp-1180682,LaMg2H7Pd,0.7090000000000001
mp-1183567,CaPmMg2,0.0
mp-1183601,CaGdRh2,0.0
mp-1183806,DyLuIn2,0.0
mp-1184088,Er2TlIn,0.0
mp-1184485,GdLuIr2,0.0
mp-1184999,LaMgAu2,0.0
mp-1185616,Mn2CrSi,0.0
mp-1185621,MgZn2Ir,0.0
mp-1185636,Mg149Tc,0.09729999999999901
mp-1185639,Mg149Ti,0.200299999999999
mp-1185926,Mn2PdPt,0.0
mp-1186304,NdAs2Au,0.0
mp-1186589,PmHoTl2,0.0
mp-1186660,PuCdHg2,0.0
mp-1186923,Re3Rh,0.0
mp-1187334,TbDyIn2,0.0
mp-1187349,TbMgZn2,0.0
mp-1187713,VGaOs2,0.0
mp-1187800,Zn2CuRh,0.0
mp-1188076,ThMg149,0.0234
mp-1188842,Tb(Co2B)6,0.0
mp-1189260,Nb3CrS6,0.0
mp-1189272,CsAlTe3,1.3547
mp-1189408,Sr2HoTaO6,3.829499999999999
mp-1189894,Y2MnCoO6,0.0
mp-1190092,Ta3VS6,0.0
mp-1190231,Lu4Ga12Pd,0.0
mp-1190240,TmSiPt2,0.0
mp-1190246,Ir2Pb2O7,0.197799999999999
mp-1190373,K2V2CoO7,2.5976
mp-11904,LiSm2IrO6,0.0
mp-1190457,Ba3UAgS6,0.6571
mp-1190526,PuPO4,0.0
mp-1190853,Er3(GaNi3)2,0.0
mp-1191371,TmCrB4,0.272199999999999
mp-1191870,Y4Ni13C4,0.0
mp-1192638,Cs4U3Si4O17,0.024499999999999002
mp-1192674,Ba(LuSe2)2,1.3898000000000001
mp-1193109,NaCaAsO4,3.5934
mp-1193113,Ta3Cr3N,0.0
mp-1193494,MnAgPO4,0.0
mp-1193731,U8VS17,0.0
mp-1194327,Tm2(Ga3Co)3,0.0
mp-1194412,Pb3Se2(BrO3)2,3.0709
mp-1194443,LaCu13,0.0
mp-1194550,Ca21(Zn2As9)2,1.045499999999999
mp-1194576,Rb3Sb2Br9,2.185499999999999
mp-1194925,GdB(SO4)3,2.7688
mp-1195395,K2Sn3(SbS5)2,1.782499999999999
mp-1195483,BaTh2S5,1.7275
mp-1196062,Ca5(IO6)2,2.6102
mp-1196703,Er11Sn10,0.0
mp-1196963,Er15Si9C,0.0
mp-1197019,Np3Se5,0.0
mp-1197169,Lu6Al43W4,0.0
mp-1197212,ScReGe2,0.0
mp-1197547,Li15Pd4,0.0
mp-1198252,La2Sb4Ir3,0.0
mp-1198302,Nb3Ge,0.0
mp-1198354,CeGe3Ru,0.0
mp-1198436,Mo(NO4)2,2.8204000000000002
mp-1198591,RbMoPO6,2.886
mp-1199295,Cd41Ir8,0.0
mp-1199486,Gd5Si4,0.0
mp-1199736,Y11Cd45,0.0
mp-1200007,Rb2Fe2As2O9,1.6815
mp-1200432,Ca2Al8PbO15,3.9161
mp-1200447,LaYS3,0.439799999999999
mp-1200585,Ho2Fe3Si5,0.0
mp-1200613,Y3C4,0.0
mp-1200809,Pr5(Sn5Ir2)2,0.0
mp-1201722,Ge3(SbO3)4,3.3665000000000003
mp-1202253,Eu2Si3Ni8,0.0
mp-1202465,Gd3Ge13Os4,0.0
mp-1202636,Yb5(Ge5Rh2)2,0.0
mp-1203228,La3Rh4Pb13,0.0
mp-1203867,CeCo5P3,0.0
mp-1204441,Tb11(In3Ge2)2,0.0
mp-1204935,Dy2Nb2S7O30,0.1207
mp-1205323,Tb6OsI10,0.0
mp-1205538,TmFe2SiC,0.0
mp-1205791,Ho2Ge2Ru,0.0
mp-1205820,TbMgAu,0.0
mp-1206116,YFe2SiC,0.0
mp-1206382,Tm2Ni2Pb,0.0
mp-1206813,Er2MgSi2,0.0
mp-1206819,ZnIr,0.0
mp-1206836,Rb2TcI6,0.5801000000000001
mp-1206858,Rb(PRu)2,0.0
mp-1206998,La(AlSi)2,0.0
mp-1207014,TbMgPd,0.0
mp-1207092,GdHSe,0.6476000000000001
mp-1207135,Gd3TlC,0.0
mp-1207148,HoFe2SiC,0.0
mp-1207159,Cs3EuF6,0.0
mp-1207932,TmGa3Os,0.0
mp-1207977,VFe2BO5,0.126
mp-1208432,Ta3MnS6,0.007500000000000001
mp-1208551,Tb(ZnP)3,0.24319999999999903
mp-1208826,Sm3Ga2Sn3,0.0
mp-1208979,SmAg(WO4)2,3.1598
mp-1208981,Sm3(Si3Pd10)2,0.0
mp-1209173,RbCuTeS3,0.9764
mp-1209219,RbNbCl6,2.246
mp-1209429,Pr3(Si3Pd10)2,0.0
mp-1209439,Rb8Ta6O19,3.4772
mp-1209496,RbCeF4,0.0362
mp-1209614,Pu4Sb3,0.0
mp-1209784,Pr3Re2O9,0.156499999999999
mp-1210020,Ni3BO5,0.0
mp-1210151,Nd3Re2O9,0.188499999999999
mp-1210845,NaGaGeO4,3.1149
mp-1210981,La3PBr3,0.0
mp-1211172,Mn6Te5O16,1.985599999999999
mp-1211264,KWCl6,0.0
mp-1211620,KEu2Cl5,1.0117
mp-1212009,KZr6MnCl14,1.1964000000000001
mp-1212429,Ho12Co5Bi,0.0
mp-1212597,Hf2InCu2,0.0
mp-1212920,Er3(Al3Os)4,0.0
mp-1212959,Er4MgCo,0.0
mp-1213010,ErSiRh2,0.0
mp-1213111,Dy2Si3Pd,0.0
mp-1214066,Ca3Hf3AgF20,0.8425
mp-1214183,Ca6Al43W4,0.0
mp-1214215,Ca11AlSb9,0.9168000000000001
mp-1214551,Ba6Tb2Ga4O15,3.594
mp-1217162,Ti2Co3Si,0.0
mp-1217874,Tb14Ag51,0.0
mp-1218648,Sr6Al7ClO16,3.6133
mp-1219038,SmUTe6,0.0
mp-1219423,Sc2Ga3Cu,0.0
mp-1219685,PuUC2,0.0
mp-1219788,PrTaTiO6,2.976099999999999
mp-1219950,Pr6Ni3Sn14,0.0
mp-1220696,Nb2AgS4,0.0
mp-1220996,NaP4(RuO7)2,0.014599999999999001
mp-1221561,MnZn3(CrSe2)8,0.173599999999999
mp-1221653,MnNb4(CS2)2,0.0
mp-1222365,Lu2Ga3Cu,0.0
mp-1222813,LuGa2Ni3,0.0
mp-1223032,Li9Nd2(PS4)5,2.6503
mp-1223484,KV3(PbO3)4,2.984
mp-1223500,KBa3(BiO3)4,0.0
mp-1223510,KBiPb,0.0
mp-1223786,HoZnSi,0.0
mp-1224717,Gd3SOF5,1.9732
mp-1224890,FeSb3Pb4O13,1.7775999999999992
mp-1225385,Dy5Sc5(Si5Ir2)4,0.0
mp-1226157,Cs2Ti(WO4)3,2.7641
mp-1226433,Cr3GaS6,0.0
mp-1227174,CaNd3Mn4O12,0.0
mp-1227577,Ce4Ni4Bi3Sb5,0.0
mp-1228342,Ba2ScO3F,3.6947
mp-1228992,AlGe3Mo2,0.0
mp-1229199,Ba17SrSm12Cl68,0.006199999999999001
mp-12342,CsNdZnTe3,1.3606
mp-12382,ErSi2Ni,0.0
mp-12434,Ho2InGe2,0.0
mp-1246385,K2MnN2,0.0
mp-12593,ScIr3,0.0
mp-13073,PrNiGe3,0.0
mp-13432,Tb2AlCo2,0.0
mp-13580,LuGePt,0.0
mp-1383,UCo2,0.0
mp-14386,Ba3Lu(BO3)3,3.862299999999999
mp-14623,K5CuAs2,0.252599999999999
mp-14696,La2B4Rh5,0.0
mp-1471,Zr3Al,0.0
mp-14715,Pr2Au5F21,1.7725