material_id,pretty_formula,band_gap
mp-6057,TlSnPS4,1.8417
mp-616601,Ba2InRuO6,0.3662
mp-618999,Pr4NiI5,0.0
mp-619651,Cs3AlP2,0.9831000000000001
mp-622565,Ho3Co,0.0
mp-638749,Te3(PdBr)4,0.8159000000000001
mp-640095,La3Co,0.0
mp-640391,Tm5NiPb3,0.0
mp-641097,UTl2(MoO5)2,2.2166
mp-667291,ReHg2O5,1.6555
mp-667372,Ba8Zr3(SbO6)4,2.9436
mp-669508,TaP2NCl12,2.8754
mp-681992,Zr5Pb3,0.0
mp-703673,YbVO3,0.41650000000000004
mp-7302,CrP4,0.0
mp-7426,Ba(ZnP)2,0.0
mp-744264,CrH15S2O15,3.4823
mp-745012,Ni2P2O7,3.5898
mp-7522,Th2SbN2,0.0
mp-752425,Dy2Ti2O7,2.9696
mp-753301,Na4(NiO2)5,0.5005000000000001
mp-755515,Lu2TeO6,2.9825
mp-757860,K2W4O13,1.7675
mp-766947,Sn(PO3)2,3.7854
mp-776388,NaNiPO4,3.3594
mp-7817,YB12,0.0
mp-7974,RbSmO2,0.0
mp-8269,Lu2CdS4,1.4873999999999992
mp-849323,V(SO4)2,1.3422
mp-8584,NaErSe2,1.9423
mp-862288,AlFe2W,0.0
mp-862445,TaAlOs2,0.0
mp-862558,LiEr2Os,0.0
mp-862586,Re3Pd,0.0
mp-862697,Er2MgGe2,0.0
mp-862746,Sr2LiTl,0.0
mp-862956,PmSnAu2,0.0
mp-863668,Pm2CuOs,0.0
mp-864790,Nd2BC,0.0
mp-864924,NdMgHg2,0.0
mp-864970,MnSiTc2,0.0
mp-864980,MnAlRu2,0.0
mp-865007,Dy2MgIn,0.0
mp-865020,HfMgIr2,0.0
mp-865050,HfMgRh2,0.0
mp-865089,NaCeTl2,0.0
mp-865127,NaTl2Cd,0.0
mp-865184,LiScPd2,0.0
mp-865282,Tm2AgRu,0.0
mp-865317,Tm2CuPt,0.0
mp-865318,Lu2MgRu,0.0
mp-865354,Tm2IrPd,0.0
mp-865547,Pm2CuSi,0.0
mp-865800,Yb2BiAu,0.09050000000000001
mp-865885,CeAgHg2,0.0
mp-865895,GaGeRu2,0.0
mp-866209,Pm2SiNi,0.0
mp-866646,KGeBiS4,1.840999999999999
mp-867173,SrInHg2,0.0
mp-867346,ThCdHg2,0.0
mp-867925,SrAcHg2,0.0
mp-867966,Eu2SiO5,0.0
mp-8702,LiGaGeO4,2.7272
mp-919,HoTe,0.0
mp-9325,Sr3MnN3,0.0
mp-9351,LuGeAu,0.0
mp-9368,RbTmS2,2.4001
mp-971702,YbNdCd2,0.0
mp-972463,Tm5Sb3,0.0
mp-974455,Re3Ru,0.0
mp-974729,Nd(Al2Cu)4,0.0
mp-975799,LiZn3,0.0
mp-976920,Ni9S8,0.0
mp-977372,Pm2SnHg,0.0
mp-977438,MgInRh2,0.0
mp-977545,ZrTc2W,0.0
mp-9797,K(SbSe2)2,1.1431
mp-980198,TmLuZn2,0.0
mp-981247,Zn7Sb8Ru9,0.0
mp-985707,CoSn3,0.0
mp-999290,PuCoC2,0.0
mvc-13940,MgMoF6,2.4373
mvc-9241,CaPrTi2O6,0.0
mvc-9944,Ba2Mn2F11,1.7788
mp-1018824,NpSbTe,0.0
mp-1025165,Zr(VGa2)2,0.0
mp-1025285,Ce2Re2Si2C,0.0
mp-1025420,SmSi2Ni,0.0
mp-10382,KEuPSe4,0.0
mp-1069379,GdCoSi3,0.0
mp-1072399,Be5Pt,0.15130000000000002
mp-1072444,UPt5,0.0
mp-1072660,VAs2,0.0
mp-1077165,YbCu4Au,0.0
mp-1078343,UGa5Ru,0.0
mp-1078411,Sr(SnAu)2,0.0
mp-1078511,CuAsPtS2,0.0
mp-1078639,DyMgPd,0.0
mp-1078641,SmZnNi,0.0
mp-1078698,ZrCuGeAs,0.0
mp-1079136,U2InPt2,0.0
mp-1079204,Sm(CuSn)2,0.0
mp-1079246,ZrGaCo,0.0
mp-1079394,LiDyGe,0.0
mp-1079705,Ba2LuTaO6,3.408899999999999
mp-1079910,SiTc,0.0
mp-1079933,Y2InAu2,0.0
mp-1080146,Pu3Si2,0.0
mp-1084830,LaGe,0.0
mp-10849,AsPdSe,0.0
mp-10850,SbTePd,0.0
mp-1087502,HoPd,0.0
mp-1095273,BaGdCuTe3,0.5042
mp-1095496,ErGa4Ni,0.0
mp-1095690,Tm2Au,0.0
mp-1097025,GaFe2BO5,2.083199999999999
mp-1101601,LiV2(PO4)3,1.376799999999999
mp-1101781,BaErCuSe3,0.9489000000000001
mp-1102098,Nd2Au,0.0
mp-1102210,DyRe2,0.0
mp-1102417,CeGaRh,0.0
mp-1103148,ZrCoGe,0.0
mp-1103189,LaTeCl,0.8821000000000001
mp-1103865,BaFe2(PO4)2,2.1555
mp-1103893,Lu2MnSe4,1.0032
mp-1104310,Tb3Ga8Au3,0.0
mp-1105786,Dy7Rh3,0.0
mp-1105931,Pr(TmS2)3,1.0193
mp-1106022,Y2Ge5Rh3,0.0
mp-1106092,Sr7Ag3,0.0
mp-1106398,V5Ge3B,0.0
mp-1111950,K2AgRhF6,1.4955
mp-1112013,Cs2NaRuF6,0.0
mp-11285,Ca3(GaNi)4,0.0
mp-11302,HoCd3,0.0
mp-11318,CePt3,0.0
mp-1140,NdCu5,0.0
mp-11569,SmTl3,0.0
mp-1181553,Dy5Tl3,0.0
mp-11820,BaNa2,0.0
mp-1183114,AcCu3,0.0
mp-1183744,CeMgHg2,0.0
mp-1183898,Eu2CuIr,0.0
mp-1184644,Ho2TlIn,0.0
mp-1185790,Mg3Sc,0.0
mp-1186111,NaAcIn2,0.0
mp-1186509,Pm2GaRu,0.0
mp-1186631,PmPrTl2,0.0
mp-1187284,Tb2Si5Ir3,0.0
mp-1187698,VZnCo2,0.0
mp-1187738,VSnRu2,0.0
mp-1187958,Yb2ZnSn,0.007200000000000001
mp-1188046,ZrPaTc2,0.0
mp-1188271,Er6IrI10,0.0
mp-11883,MgIr2,0.0
mp-1188309,Tb6CoBr10,0.0011
mp-1188900,Tb7RuI12,0.0
mp-1189212,TaSiRu,0.0
mp-1189998,Gd2C3,0.0
mp-1190282,Ho3NiGe2,0.0
mp-1190472,CsHo2Ag3Te5,1.1763
mp-1190545,Ba2MgGe2O7,3.6201
mp-1191722,Ho3(GaNi3)2,0.0
mp-1192832,Nb2(Co7B2)3,0.0
mp-1193679,Zr6Al16Ni7,0.0
mp-1194132,Ca(TmS2)2,1.568099999999999
mp-1194239,Pu2SiO10,0.7179
mp-1195131,Sr3CaIr2O9,0.0
mp-1195248,CsCrAs2O7,2.5014000000000003
mp-1195711,Sb2XeF16,1.6306
mp-1195740,ErCo5P3,0.0
mp-1195776,Ba(CoSn4)2,0.0
mp-1195957,Er5(Si5Ir2)2,0.0
mp-1196047,CsV2SbO8,2.7105
mp-1196778,Y2B6Ru,0.0
mp-1197749,BaGd2Si3O10,0.147599999999999
mp-11982,Sr2CaTeO6,3.2226
mp-1198418,TaTe4Cl4O,1.138499999999999
mp-1198476,CeSn3Ru,0.0053
mp-1198564,EuCuGe,0.0
mp-1198796,RbSnF3,3.689899999999999
mp-1199127,La6Co13Sn,0.0
mp-1199908,Cs7NaSi8,1.5761
mp-1200057,Li7La3(SnO6)2,3.6048999999999998
mp-1200302,Y3Co4Ge13,0.0
mp-1200672,Sm5Pb4,0.0
mp-1200740,Yb(TiAl10)2,0.0
mp-1201499,Y3(Si3Ru)4,0.0
mp-1201960,Cs3GaP2,0.9444999999999991
mp-1202615,Ho5IrBr9,0.754599999999999
mp-1203106,Ga7Sb7(Te4Cl13)2,1.4002000000000001
mp-1203224,Pr2HfS5,1.0312
mp-1203399,SmCd11,0.0
mp-1203453,TbCo3P2,0.0
mp-1203960,UH6Br2O5,1.5182
mp-1204360,PrCo3P2,0.0
mp-1204735,Ho2ReB6,0.0
mp-1204762,Cs2Th2P2Se13,1.6041999999999992
mp-1204832,Ga3Ni27B14,0.0
mp-1205078,LiCe(PO3)4,0.124199999999999
mp-1205318,BaAgBi,0.0
mp-1205500,Sm3(AgSn)4,0.0
mp-1205713,Ba2YUO6,0.8788
mp-1205843,Er6MnSb2,0.0
mp-1205947,Eu2TaAlO6,0.3728
mp-1206052,Ce2SnPd2,0.0
mp-1206133,Ba2MgOsO6,0.0
mp-1206310,NdCr2Si2C,0.0
mp-1206600,K(AsRu)2,0.0
mp-1206679,YBiPt,0.0
mp-1206743,HfS,0.0
mp-1207003,La2Cu2I,0.0
mp-1207022,K(PRu)2,0.0
mp-1207398,Zr6Be15Pd8,0.0
mp-1207703,Y5SbPt2,0.0
mp-1207913,UNbN2,0.0
mp-1208111,TlPb2Br5,2.9591000000000003
mp-1208385,Th6NiBr15,0.0
mp-1208405,Tb5(SiB4)2,0.0
mp-1208544,Tb2Si4CN6,3.1445
mp-1208769,SrMnP2O7,3.9331
mp-1208986,Sc2GeB2Ir5,0.0
mp-1209179,RbSbCl6,1.985199999999999
mp-1209508,RbMo3Cl7,2.577
mp-1209523,Rb3Sc2Br9,2.9286000000000003
mp-1209832,Nd3Cu4(P2O)2,0.0
mp-1209912,Pd3Se2S,0.32220000000000004
mp-1210497,Sm8Ni18P11,0.0
mp-1211689,Nd8Sb14Rh17,0.0
mp-1211700,K3Nd(BO3)2,3.3857
mp-1212285,Ho7C2I12N,1.261299999999999
mp-1212428,HfFeAs,0.0
mp-1212455,Hf6Be15Cu8,0.0
mp-1212765,Pr25Ni49P33,0.0
mp-1212781,Eu5P3O12F,0.3372
mp-1213105,Eu3W(ClO2)3,0.0
mp-1213273,Eu2Cu(GeO4)2,0.0
mp-1213347,CsHo(MoO4)2,3.5872
mp-1213389,CsLu(TaBr3)6,1.3116
mp-1213460,Dy12Ni6Pb,0.0
mp-1213761,CrNi2BO5,2.7308
mp-1214063,Ca5Rh,0.0
mp-1214222,Ca3Al2(GeO4)3,3.5021
mp-1214562,Ba3PrIr2O9,0.0
mp-1214640,Ba3CeIr2O9,0.0
mp-1214668,Ba3Na3(CO3)5,0.0
mp-1214774,Ce23Cd4Ir7,0.0
mp-1214921,AsSe(BrF2)3,2.5742000000000003
mp-1215016,Ag5Te2Br,0.20789999999999903
mp-1215905,YCuGe,0.0
mp-1216081,Y2Ga3Cu,0.0
mp-1216333,VNi3AsO8,2.6614999999999993
mp-1217009,TiAl2Zn,0.0
mp-1217139,Ti3Mn(CuS4)2,0.0
mp-12174,HfNi3,0.0
mp-1217878,Tb14Au51,0.0
mp-1217891,TaTiAl6,0.0
mp-1220050,PrGa2Ni3,0.0
mp-1220063,Pr7In6Ni5Ge3,0.0
mp-1220273,Nd6Ge3Se14,1.1643
mp-1220826,NaLaF4,0.0007000000000000001
mp-1221219,Na3SrTa4O12,0.0
mp-1221454,Na(VSe2)2,0.0
mp-1221691,MnCrInS4,0.0
mp-1221926,MnNb8(FeO8)3,2.4038
mp-1222018,Mn2Cr3FeO8,1.8039
mp-1222263,LuPaO4,2.7337
mp-1222325,LuCuPbS3,1.5942999999999992
mp-1222713,LaUS2,0.0
mp-1222794,LaGa3Pt,0.0
mp-1222964,LaCe(MnSi)4,0.0
mp-1223689,K2Cd3SnAs4,0.0
mp-1224067,HfZrW4,0.0
mp-1224184,HfZrB4,0.0
mp-1224373,GeTePt,0.08749999999999901
mp-1224463,HoCo3P2,0.0
mp-1224708,Fe2Pb(SeO3)4,2.4224
mp-1225372,Dy2Si9B36C,1.1726
mp-1225913,Eu2Mo(WO6)2,0.0
mp-1225946,Cu2NiSnO4,0.0
mp-1226896,Ce2Ge2IrRh,0.0
mp-1227487,Ca2MgReO6,0.0
mp-12376,KYbSiS4,0.0
mp-12813,YbIn2Rh,0.0
mp-12895,YbGa4Ni,0.0
mp-12905,Ba3CrN3,0.0
mp-1296462,La4FeSe6O,1.8602999999999992
mp-13137,Hf2CS,0.0
mp-13182,Li2TiGeO5,3.6062000000000003
mp-1327,NdMg,0.0
mp-13342,ErB4Rh,0.0
mp-1347,Th3P4,0.26579999999999904
mp-13679,PdF3,0.0
mp-1374,Zr5Re24,0.0
mp-13853,P3Ir,0.08710000000000101
mp-13932,Ba2DyReO6,0.0
mp-14118,Sc2(MoO4)3,3.5309
mp-14373,Y3B7W,0.0
mp-145,Lu,0.0
mp-14526,Na4Hf2(GeO4)3,3.6565000000000003
mp-14561,Ba(SiIr)2,0.0
mp-1534,YS,0.0
mp-16831,CaTi4(PO4)6,2.7134
mp-16905,Ba2MnTe3,0.8427000000000001
mp-1692,CuO,0.0
mp-16961,Na6Si2Se7,2.1566
mp-16990,Ba10P6SO24,3.188
mp-17036,Tb2Si3Rh,0.0
mp-17154,Rb3SbS4,2.3952
mp-17269,Ba3NiSb2O9,0.0
mp-17564,Ca5Sb3,0.252499999999999
mp-17803,Nb2Tl4S11,1.2182
mp-17914,CaGa4O7,2.5387
mp-18340,Tb2MoO6,2.2285
mp-18525,TbMn2O5,1.238199999999999
mp-18585,RbAgSe4,1.1734
mp-18678,Nd2Ge5Rh3,0.0
mp-18937,V2O3,0.4888
mp-19479,Na5La(MoO4)4,4.0741
mp-20178,CeBO3,0.0656
mp-20184,USiRh,0.0
mp-2058,Ni3B,0.0
mp-20580,NiRhF6,0.006399999999999
mp-20758,Cr2CoO4,2.7793
mp-20847,Ti5Sn3,0.0
mp-20968,KFe(SO4)2,2.1881
mp-21010,PrSnRu,0.0
mp-21363,TbFeSi,0.0
mp-21366,Yb(GeRu)2,0.0
mp-2142,Te2Os,0.523099999999999
mp-21429,U(CoSi)2,0.0
mp-216,Sc2O3,3.814
mp-21622,Na3InAs2,0.1482
mp-21778,Li2Fe2(MoO4)3,2.7709
mp-22152,NaFeAs,0.0
mp-22214,Rb2RhF6,0.0
mp-22324,TbGePt,0.0
mp-22352,Ba3InRu2O9,0.0
mp-22384,DyInPt,0.0
mp-22615,Gd(SiAu)2,0.0
mp-22632,Co3(BO3)2,0.0
mp-22794,TmGeRh,0.0
mp-22820,Na2InNiF7,3.8623000000000003
mp-2295,CaNi2,0.0
mp-23065,CsCu2Cl3,1.829899999999999
mp-23471,K2RuCl6,0.0
mp-23630,NbBi4ClO8,1.3611
mp-23989,GdH12(ClO2)3,0.3658
mp-24095,PrH2,0.0
mp-24217,Sc2P3(HO3)3,4.6190999999999995
mp-24659,UH3,0.0
mp-25310,Fe(PO3)3,2.8438
mp-25432,PWO4F,3.002399999999999
mp-2677,ScPd3,0.0
mp-27161,ZnI2,2.9076
mp-27319,Sc2Co3Si,0.0
mp-27377,K4Zr5O12,3.19
mp-27588,Be(PO3)2,6.240299999999999
mp-27618,Na8Ga2O7,2.259
mp-27835,K2OsBr6,0.0
mp-27981,PuClO,0.0
mp-27982,PuBrO,0.0
mp-28030,Li8Nb2O9,3.2417
mp-28079,Na2Mn2S3,0.5011999999999991
mp-28303,Na3SiSe4,1.7564000000000002
mp-28355,Na4Ge2Se5,1.7172
mp-28665,NdSi2Ru,0.0
mp-28888,Cu(PtS2)2,0.242
mp-28917,Ba2Ti13O22,0.0
mp-28990,Bi2Te4O11,2.8578
mp-29107,Rb2Hg3Te4,1.0159
mp-29570,Ca2Si3Ag,0.0
mp-29580,Ta9(CoS3)2,0.0
mp-29599,Re3(SBr)7,1.3262
mp-29901,Rb2Cd3Te4,1.9082
mp-29914,Er7(NiTe)2,0.0
mp-30183,ZrAl5Ni2,0.0
mp-3020,BaNbO3,0.0
mp-30287,LuPS4,2.179
mp-30385,Ho2Au,0.0
mp-30432,Ba(RhPb2)3,0.0
mp-30490,Mg3Cd,0.0
mp-30802,NdZn11,0.0
mp-30933,ZrBi,0.0
mp-3097,Tb(SiRh)2,0.0
mp-31426,HoInNi,0.0
mp-31462,Er5BiPt2,0.0
mp-3203,NdTaO4,3.95
mp-32798,La2Se3,1.5393
mp-328,Zr2Ni,0.0
mp-331,ScAl,0.0
mp-3325,Ce(NiGe)2,0.0
mp-3802,Ta4AlC3,0.0
mp-3879,Ba2CuF6,0.8529000000000001
mp-410,YbPt2,0.0
mp-4109,Ba(AsRu)2,0.0
mp-4126,KUO3,0.49659999999999904
mp-4250,Tb(SiPd)2,0.0
mp-4322,Pr(CoB)2,0.0
mp-4324,Tm2CdS4,1.4221
mp-4521,Tb(CuGe)2,0.0
mp-4669,Th(MoO4)2,3.7091000000000003
mp-4908,Y(CoGe)2,0.0
mp-4913,LiGa2Rh,0.0
mp-4954,La(SiPd)2,0.0
mp-5036,ErPS4,2.1502
mp-505040,Cs2K4Fe2O5,1.5827
mp-505335,Ho2Mn3Si5,0.0
mp-505472,Al3(Ni10B3)2,0.0
mp-510028,Nd2Fe12P7,0.0
mp-510661,Gd(IO3)3,1.269899999999999
mp-531952,KW3Br7,2.6738
mp-5338,ZnSeO3,3.9446000000000003
mp-537,ErCo2,0.0
mp-5385,TbSnPd2,0.0
mp-541538,K2CdSiO4,2.6429
mp-542122,Ba3LiRu2O9,0.0
mp-542269,Pr4(GeS4)3,1.9765000000000001
mp-542871,RbP2WO8,3.4428
mp-542996,Ta6Fe16Si7,0.002699999999999
mp-545539,Pr2BiO2,0.0
mp-550685,Ba2CaTeO6,3.0122
mp-551900,PrBi2BrO4,1.286699999999999
mp-553976,CsTaPS6,1.7818
mp-554686,MgAs2(XeF9)2,2.6713
mp-554909,Ba3MgIr2O9,0.0
mp-555340,AsIF12,0.6263999999999991
mp-555680,SbMoOF9,3.7184
mp-555798,VHg4P2O9,1.6473
mp-555974,Rb2U(SiO3)4,2.5048
mp-556234,Rb3Sb5O14,1.1656
mp-556586,Bi2Mo2O9,2.8031
mp-556937,Y2(MoO4)3,3.9229000000000003
mp-558010,KEr(WO4)2,3.3278
mp-558229,La10S19,0.7221000000000001
mp-558344,VSnPO5,1.149699999999999
mp-558602,CsAl3(P3O10)2,5.4323000000000015
mp-558859,VCdBiO5,2.661
mp-559325,Ba7Sc6Al2O19,2.4756
mp-559807,Sb2BrF17,0.14449999999999902
mp-560046,Ta2Pt3S8,0.7047000000000001
mp-560580,K3Mo12PO40,2.2502
mp-560745,AuN5O14,1.9354
mp-561103,BaTa2O6,2.0624
mp-561110,SiPb4(ClO)4,3.5262000000000002
mp-561304,KAg3As2S5,1.6833
mp-561682,Cs(MoS)3,0.7270000000000001
mp-562042,Co6Te5O16,2.308999999999999
mp-567729,La7C3I10,0.0
mp-568337,ThRh2,0.0
mp-568644,K9InSe7,1.8682
mp-569196,YNi3,0.0
mp-569281,HoB4,0.0
mp-569491,NaLa(GaSe2)4,1.642999999999999
mp-569558,AlAu2,0.0
mp-569673,PrI2,0.0
mp-569832,Nd(Al4Co)2,0.0
mp-570631,U(FeP)2,0.0
mp-570661,Ta6Co16Si7,0.0
mp-571223,Tb3(CuSn)4,0.0
mp-571566,Li2ZnSi,0.0
mp-573563,Sm(CoP)2,0.0
mp-578949,Na4Mn3P4O15,3.295799999999999
mp-582444,Os(SeCl6)2,0.0
mp-582828,La3Ge3Cl2,0.0
mp-601861,RbInS2,2.097299999999999
mp-605,ZrTe5,0.0777
mp-6071,Sr3LiIrO6,0.0
mp-623814,Hf8FeTe6,0.0
mp-6300,RbHgSbSe3,1.1007
mp-635441,SiI4,2.8561
mp-6361,NaSr3NbO6,3.3705
mp-639135,Pr3RuCl3,0.0
mp-639228,Tb2Mn3Si5,0.0
mp-640597,Ce3(AgGe)4,0.0
mp-642418,Sr11In3Ga4,0.0
mp-650840,In2Bi4Pb4S13,1.200399999999999
mp-651814,CsV3O8,2.0999
mp-652608,UWC2,0.0
mp-6595,Sr3CuPtO6,0.0
mp-6653,Ba2ErNbO6,2.854199999999999
mp-6668,LiTiPO5,3.0594
mp-6687,Ba2HoSbO6,3.422799999999999
mp-676315,Y2GeI2,0.19609999999999903
mp-679930,Cu3P15I2,1.011499999999999
mp-679979,La9B3C6I5,0.0
mp-680356,ZrN6O17,1.568
mp-680446,Cu3P4Se4Br3,1.2863
mp-683897,Pr3Sn13Rh4,0.0
mp-684011,Eu8C4I9N7,0.8254
mp-690702,SnPHO4,3.7041999999999993
mp-6988,FeN,0.0
mp-700033,Na6U5V2O23,1.8105000000000002
mp-721592,Ca6Al7O16,0.0
mp-7329,KCeS2,0.05330000000000001
mp-7361,Sr(CoGe)2,0.0
mp-744832,V3HPb5O13,2.8518
mp-7476,RbDyO2,3.6726
mp-755041,Tm2Mn2O7,1.4664000000000001
mp-7559,YNi4B,0.0
mp-758418,Tl16O15F17,0.0
mp-7625,Y3ReB7,0.0
mp-766437,MgTi5O10,0.0
mp-767,Yb3Ge5,0.0
mp-768695,Ho2Ti2O7,2.9749
mp-771957,Ta2PbO6,2.6067
mp-8456,SrAsPt,0.0
mp-849086,CuS2,0.0
mp-861616,LiSc2Ir,0.0
mp-862680,DyMgAg2,0.0
mp-862742,Pm2ZnGe,0.0
mp-862922,PmInNi2,0.0
mp-864612,Nd2MgIn,0.0
mp-864653,HoMgAu2,0.0
mp-864884,DyCdHg2,0.0
mp-864933,Mg2AgRh,0.0
mp-865091,HfMnRh2,0.0
mp-865508,U2Ni12As7,0.0
mp-865640,TiGeRu2,0.0942
mp-865793,LiSc2Rh,0.0
mp-865843,YbNdZn2,0.0
mp-865913,Li2AcSn,0.0
mp-866314,Ca5Al2(SiN4)2,2.794799999999999
mp-867117,Sc2CuPt,0.0
mp-867177,PrCdHg2,0.0
mp-867190,Pr4Ge7,0.0
mp-867206,LiCd2Pt,0.0
mp-867212,TcOs3,0.0
mp-867225,LaCdAg2,0.0
mp-867262,ScTc3,0.0
mp-867301,Tb2MgGe2,0.0
mp-867348,DyMgSn,0.0
mp-867774,Ta2CrOs,0.0
mp-867816,TaRu3,0.0
mp-867846,TaTiRe2,0.0
mp-8786,Zr2NiAs2,0.0
mp-8951,SmAsPd,0.0
mp-9360,CaU(PO4)2,0.252899999999999
mp-971669,FeSb3,0.0
mp-972236,V2MoW,0.0
mp-972326,TcPt3,0.0
mp-972541,SmTmTl2,0.0
mp-972635,SmErHg2,0.0
mp-972957,ScTiRu2,0.0
mp-9743,SrAsPd,0.0
mp-976257,KTi5Se8,0.0
mp-977428,YbAl2Cu,0.0
mp-978840,SrLi2(SiN2)2,3.436
mp-982929,Pm2AgRh,0.0
mp-9907,SrAs3,0.0
mp-9923,VP2,0.0
mp-999461,NaPrSe2,1.8334000000000001
mvc-2225,Ba2CuMo2F14,1.2404
mp-1007691,HfPt,0.0
mp-1008511,BaGaCu2,0.0
mp-1018056,HfNi,0.0
mp-1018638,Tb3AlN,0.0
mp-1018812,NbGeAs,0.0
mp-1018953,PuSbTe,0.0
mp-1025363,Dy2Mo2C3,0.0
mp-1025446,CeGa2Ni,0.0
mp-1025489,SmSi,0.0
mp-10298,Sm(SiPt)2,0.0
mp-1045,Nd2O3,3.7110000000000003
mp-1068035,Ca2MgPd2,0.0
mp-1070916,AlBW,0.0
mp-1070955,SmSiNi4,0.0
mp-1071208,LaAl2BOs2,0.0
mp-1072345,TmMgSn,0.0
mp-10739,TiPRu,0.0
mp-10763,KHgSb,0.0
mp-1076977,DyAlGe,0.0
mp-1077,B2Ru,0.0
mp-1077903,Tl2Pd3Se2,0.0
mp-1078114,ReCl6,0.0
mp-1078645,YCoGe2,0.0
mp-1079622,Ba3(ZnAs2)2,0.0
mp-1079975,U(CoGe)2,0.0
mp-1080797,CsHg,0.0
mp-10877,Ca(Al2Cu)4,0.0
mp-1094889,LiMg,0.0
mp-1095357,BaIn9Ir2,0.0
mp-1095433,TmGa4Ni,0.0
mp-1095505,Ti3GeC2,0.0
mp-1101952,HfSiNi,0.0
mp-1103044,Sn2Rh,0.0
mp-1103395,La2Au,0.0
mp-1103912,CsSO4,0.1129
mp-1104164,Ba3Au2,0.0
mp-1104368,Li2Pr2Ge3,0.0
mp-1104815,LaMg12,0.0
mp-1105577,La5RuPb3,0.0
mp-1105800,LuB2C,0.0
mp-1106026,Y4Ga12Fe,0.0
mp-1106349,SmPd3S4,0.0
mp-1111145,K3CoF6,2.9366000000000003
mp-11200,LaMg2Ni,0.0
mp-11237,ScAg,0.0
mp-11420,YGa,0.0
mp-11433,ErGaCo,0.0
mp-11511,LaAlGe,0.0
mp-11649,Ca3SiO,0.18660000000000002
mp-1180718,KSn2(PO4)3,3.4487
mp-1184115,Er,0.0
mp-1184495,GdMgHg2,0.0
mp-1184684,HfGeRu2,0.07349999999999901
mp-1184762,GdErIn2,0.0
mp-1185027,LaYbAu2,0.0
mp-1185385,LiLuTl2,0.13839999999999902
mp-1185573,Mg149Au,0.561299999999999
mp-1186651,PmSmTl2,0.0
mp-1187921,ZnRu2W,0.0
mp-1188194,Ta3B2Ru5,0.0
mp-1188688,PuTcB2,0.0
mp-1188929,Ti(NbS2)3,0.0
mp-1189520,NaPS3,2.0008
mp-1189529,Ho4Ge6Ir7,0.0
mp-1189783,PrAlPd2,0.0
mp-1189916,Zr5CdPb3,0.0
mp-1190209,RbHf2Br9,3.1699
mp-11908,Lu5Si3,0.0
mp-1190833,NdSi2Ni9,0.0
mp-1191379,EuGe7Ir3,0.0
mp-1191588,Dy2Co12P7,0.0
mp-1191842,Na2VNiF7,2.4804999999999993
mp-1191854,Sm2Ni12As7,0.0
mp-1192289,MnH2Cl2O,3.318
mp-1192836,Er4Zn5Ge6,0.035099999999999
mp-1192939,Sc6Co16Si7,0.0
mp-1192981,Eu(In2Au)2,0.0
mp-1193394,NaEu2AlP3,0.0
mp-1193462,Ce(Sn2Rh)2,0.0
mp-1194044,V4Co2N,0.0
mp-1194523,Li2CaTa2O7,2.811
mp-1194932,Sm2SeOF2,2.7948
mp-1194955,Na3Gd(CO3)3,0.013899999999999002
mp-1194980,KY(TeO3)2,3.1417
mp-1195270,Sr2P7I,2.105799999999999
mp-1195748,Sc5(Si5Ir2)2,0.0
mp-1196099,K3Bi7(SO6)4,3.1702999999999992
mp-1196161,AgAuF7,0.15779999999999902
mp-1196546,Ag2Ge(S2O7)3,2.8072
mp-1196684,Tm2Fe3Si5,0.0
mp-1197213,PuTeSO7,0.3027
mp-1197599,Ag2Sn(S2O7)3,2.4602
mp-1198721,Rb2Mo3SeO12,2.5372
mp-1199743,CsInTe2,1.3522
mp-1200988,Hf7Cu10,0.0
mp-1201345,Ba5B3ClO9,3.7493
mp-1201615,Gd4BClO7,3.0154
mp-1201849,Nd3Fe5O12,1.833099999999999
mp-1202922,Tb3Rh2,0.0
mp-1202972,Er2Nb3Ge4,0.0
mp-1203887,Tm2(Ni2B)5,0.0
mp-1204523,Rb6InP3S14,2.0216
mp-1204674,Ni9Te5(PbO5)6,1.9839000000000002
mp-1205686,Ba2PrTaO6,3.4939
mp-1205795,LaNi3B,0.0
mp-1205815,Eu2H6Ir,0.0
mp-1205852,Tb2Cl3,0.8701999999999991
mp-1205853,Nd2InAu2,0.0
mp-1205905,Dy2Ge2Ru,0.0
mp-1205930,Li5Ga4,0.0
mp-1205977,Ba2ErReO6,0.0
mp-12060,Nd(AsPd)2,0.0
mp-1206085,MnCuF6,0.0
mp-1206143,PrAl2Ni,0.0
mp-1206418,Pr(PPd)2,0.0
mp-1206554,Tb2MgNi2,0.0
mp-1206643,NdMgTl,0.0
mp-1206831,Lu3Ga5Co,0.0
mp-1207007,Tm(MnSi)2,0.0
mp-1207415,Zr6Be15Co8,0.0
mp-1207802,Y4CdIr,0.0
mp-1208316,TbGePd2,0.0
mp-1208318,TbSiPt2,0.0
mp-1208373,TbAg(WO4)2,3.1556
mp-1208520,Tb6InCo2,0.0
mp-1208548,Tb3(Al3Os)4,0.0
mp-1208894,Sm2Si5Pd3,0.0
mp-1209186,Sm6Ta4Al43,0.0
mp-1209204,RbZr6CI14,0.0
mp-1209401,Sr5Re3IO15,0.7471999999999991
mp-1209751,Pr2MnNiO6,1.790899999999999
mp-1209894,NdSI,2.0536
mp-1210,ThCd2,0.0
mp-1210920,LiGd(WO4)2,3.351499999999999
mp-1211078,TbGe3Rh5,0.0
mp-1211396,KNd(MoO4)2,3.3253999999999992
mp-1211485,La3AuI3,0.0
mp-1212015,K9Ce(PS4)4,0.342099999999999
mp-1212127,HoAl3Ni2,0.0
mp-1212341,Ho5CoBi2,0.0
mp-1212385,Ho2(Ga3Ru)3,0.0
mp-1212895,Er12In3Fe2,0.0
mp-1212913,Dy4MgCo,0.0
mp-1212977,Er2Mo4O15,3.3152
mp-1213048,ErAsSe,0.5007
mp-1213476,Er3Ga15Ru4,0.0
mp-1213665,Eu2Sb3,0.0
mp-1214043,CaP2PdO7,0.3425
mp-1214263,Ca3Ti3Cr2O12,3.090699999999999
mp-1215222,ZrNbC2,0.0
mp-1215598,Zr2Se3,0.0
mp-1215720,Zr3AlFe8,0.0
mp-1215979,YGaAu,0.0
mp-1215988,YGaAg,0.0
mp-1216090,Y6Mn(SiS7)2,0.9682000000000001
mp-1217640,UNi3P2,0.0
mp-1217811,TaW,0.0
mp-1218259,SrNd2Mn3O9,0.0
mp-1218593,SrCe3V4O16,0.010699999999999
mp-1218980,SmGaSi,0.0
mp-1219445,Sc4TaFe19P12,0.0
mp-1219676,Rb5TiSb7O22,1.6052
mp-1220898,Pr32In3Rh19,0.0
mp-1222015,MgCdAu2,0.0
mp-1222913,LaCeRu4,0.0
mp-1223761,La2Ga7Au,0.0
mp-1224597,K2Nb2As2O11,2.9960999999999993
mp-1224628,GdBO3,0.17669999999999902
mp-1225253,Eu2ZnP3Pt7,0.0
mp-1225971,CsU2F9,0.1511
mp-1226264,Cr4GaS8,0.0
mp-1226301,Eu2Mn(GeO3)4,0.0
mp-1228188,Ba4Tl13Hg3,0.0
mp-1228296,Cs5Re6S8Cl7,2.6061
mp-1229259,Ba6Gd(ReO6)3,1.8748
mp-1229300,Ca3La32(OsI12)5,0.0
mp-12341,CsPrZnTe3,1.3607
mp-1237257,LuSbO4,2.3432999999999993
mp-12464,Co(PdSe)2,0.0
mp-1246834,LiCoN,0.0
mp-12515,LaZnSbO,0.007
mp-12640,Ba2DyNbO6,2.8597
mp-12696,YMgPd,0.0
mp-13199,Zn3TeO6,1.108
mp-1326,Nb3Sn,0.0
mp-13286,CaGe2,0.0
mp-13573,Sc5Si7Pt9,0.0
mp-1363,Na2Au,0.0
mp-1447,SmSe,0.0
mp-14488,Li3In2(PO4)3,3.677199999999999
mp-1468,P4S3,2.8693
mp-14698,Ho2Fe14B,0.0
mp-14815,TaTe5Pt,0.0
mp-15216,K2TaAgS4,2.515799999999999
mp-1642,Ta5N6,0.0
mp-1678,PuRh3,0.0
mp-16915,BaTiOF4,3.3445
mp-17009,Ba3Te2O9,2.381599999999999
mp-17148,Na3GaSe3,2.0844
mp-17566,Ba5P4,0.9588000000000001
mp-17786,Ba(SmTe2)2,0.8572000000000001
mp-17857,Ta9VO25,2.6133
mp-17998,Ca(RhO2)2,0.824099999999999
mp-18057,Nd2WO6,3.740299999999999
mp-18196,Ba(TmTe2)2,0.7844000000000001
mp-18217,K3AlSe3,2.3596999999999992
mp-1824,NdNi5,0.0
mp-19063,ErCrO3,0.2464
mp-1911,CeSn3,0.0
mp-19383,Ti4Mn(PO4)6,2.4899
mp-19840,GdBRh3,0.0
mp-20034,CaPb,0.0
mp-20121,UFeSi,0.0
mp-20181,Ce2C3,0.0
mp-20185,LuNiSb,0.2763
mp-2025,HfBe5,0.0
mp-20313,Fe2SiO4,2.6766
mp-20338,CeAl3Ni2,0.0
mp-20657,Li2BPd3,0.0
mp-2078,TiCu,0.0
mp-20789,SmInRh,0.0
mp-20865,YCuPb,0.0
mp-20920,TbIn3,0.0
mp-21032,BaIn2Pt,0.0
mp-21167,Ni2P,0.0
mp-2128,Sn4Pd,0.0
mp-21375,CeMgGa,0.0
mp-21471,LiFeAs,0.0
mp-22020,Ca2NiOsO6,0.0
mp-22074,CeTaO4,0.0
mp-22085,DyCuPb,0.0