material_id,pretty_formula,band_gap
mp-554764,Sb3Au3F22,0.11379999999999901
mp-554837,Ba3LiIr2O9,0.0
mp-555099,Na3Eu(CO3)3,0.0
mp-555117,Cs2Bi4O7,2.6076
mp-555277,Rh7(PbO5)3,0.0
mp-556135,GdSI,1.6568
mp-556334,Na3Ce(PO4)2,0.4596
mp-556379,BaVOF4,2.7944
mp-557434,ZrMnTlF7,2.3108
mp-557543,K3LuSi2O7,3.6131
mp-557563,MoPb3Cl2O5,2.3406000000000002
mp-557888,K5U2O4F9,2.7062
mp-558005,HoMoClO4,2.8804
mp-558114,Sr4NbAlO8,2.953999999999999
mp-558215,Bi10(MoO8)3,2.738999999999999
mp-558486,Fe2Cu3(SeO3)6,0.20589999999999903
mp-558966,Ca5(ReO6)2,2.1162
mp-559171,Ba3Ho2(PS4)4,2.381399999999999
mp-559277,SrLiFeF6,4.124
mp-559292,P6Pb3Xe11F58,2.357999999999999
mp-559426,Pr2Zr2O7,3.573
mp-559957,SrTiGeO5,2.8768000000000002
mp-561221,TlCr3O8,1.9409
mp-561426,Ba2CrO4,1.798999999999999
mp-561500,Cs2NaVF6,0.0
mp-5666,Ho(MnGe)2,0.0
mp-567338,Pr(SiPt)2,0.0
mp-567369,Nd4Mg3Co2,0.0
mp-567431,ThCl4,3.7544
mp-567820,K6NbTlAs4,1.2098
mp-567905,U3Ni3Sn4,0.0
mp-568029,Mg15Si2Ir5,0.0
mp-568402,Sr(SiPd)2,0.0
mp-568934,Ti4AlN3,0.0
mp-569186,LaMgRh,0.0
mp-569343,Tb4Mg3Co2,0.0
mp-569848,LuInPt,0.0
mp-569894,La4B4Cl5,0.0
mp-570150,CaAlSi,0.0
mp-570205,PrSe2,0.0009000000000000001
mp-570217,Tm(SiOs)2,0.0
mp-570252,UHg4(AsCl3)2,0.32420000000000004
mp-570297,La23Mg4Rh7,0.0
mp-570466,Li2Ca,0.0
mp-570677,Ba5Al5Sn,0.0
mp-570884,TeI4,1.7639
mp-571235,ZrI4,2.0148
mp-571309,Nd12C6I17,0.0
mp-576,B13C2,0.0
mp-581115,K3Nb2Ag3S8,1.952
mp-581376,Tl3Ag3(SbS3)2,1.599899999999999
mp-581532,Cs3Fe4(PO4)5,2.4999000000000002
mp-581739,Cs5Mo21Se23,0.0
mp-581864,CsAsSe2,1.5081
mp-582378,Gd2Mo(SeO4)3,0.0
mp-5948,Th(CuSi)2,0.0
mp-5976,Dy(CoSi)2,0.0
mp-601833,Fe13Ge3,0.0
mp-602551,EuTl(MoO4)2,0.0
mp-605786,Eu2BrO2,0.0
mp-607987,CsInI4,2.2731
mp-6168,K3Nb2CuSe12,1.255299999999999
mp-621351,SmInAu,0.0
mp-622009,TaNi2TeSe,0.0
mp-6223,DyNi2B2C,0.0
mp-622620,ErNiSn,0.0
mp-6254,Ba2TbNbO6,2.9923
mp-637112,AsS7IF6,1.8164
mp-639662,CrF5,1.4569
mp-645130,Pr4MgCo,0.0
mp-6455,NaNd(SO4)2,5.6183
mp-645690,Eu(DySe2)2,0.19959999999999903
mp-6467,Na2CuP2O7,0.5373
mp-653561,Tl2GePbS4,1.9
mp-653981,Zr6NiCl15,0.0
mp-669313,Cs3Nb2S11,1.5397
mp-669703,EuZn13,0.0
mp-675037,Sm2EuS4,0.27229999999999904
mp-675993,Zr2N2O,1.6519
mp-6788,La3Ga5SnO14,3.3136
mp-680185,CsRe6Se8I3,1.135
mp-680298,Rb3Ta5O14,3.6842
mp-680552,Nd3Sn13Rh4,0.0
mp-680717,Tm(BO2)3,5.7593
mp-683963,Gd3RuO7,0.1213
mp-684013,Ba2In13Ir4,0.0
mp-684675,V12P7,0.0
mp-687234,P2WO8,2.4673
mp-690564,La2Mn3PbO9,0.000299999999999
mp-6957,Ce(FeP)2,0.0
mp-699691,Mn7SbAsO12,0.0
mp-704436,Mo3P5Pb3O23,2.5271
mp-7068,Sr3(AlSi)2,0.0
mp-7085,Tm2FeC4,0.0
mp-7157,Tb(AlGe)2,0.0
mp-7168,TbPPt,0.0
mp-7169,TmPPt,0.0
mp-7224,ThC2,0.0
mp-7368,Dy2Se3,0.5718999999999991
mp-744192,CoH12(BrO6)2,3.208599999999999
mp-7483,KHgF3,1.1609
mp-755419,Bi2TeO2,0.5792
mp-757283,Li8V3P8O29,1.2925
mp-7574,AlBMo,0.0
mp-758265,LiCu2F6,0.0
mp-761057,Sr5Nb4O15,2.8068
mp-762447,Mg3Ti9O20,0.0
mp-774586,Nb3Sb(PO4)6,1.189199999999999
mp-775201,Cr3Fe(PO4)6,0.0
mp-778670,VOF2,1.7764000000000002
mp-780561,La3Ga5O12,2.8689999999999998
mp-784631,CrNi2,0.0
mp-7877,Sr(CuSi)2,0.0
mp-811,BaPt5,0.0
mp-834,ThN,0.0
mp-839,V3Au,0.0
mp-8406,Li3NdAs2,0.044999999999999006
mp-8577,Sc3GaC,0.0
mp-8594,Ag7PSe6,0.44119999999999904
mp-861605,AcH3,0.6845999999999991
mp-861882,LiGeIr2,0.0
mp-862290,LiFeRh2,0.0
mp-862365,Sc2OsPd,0.0
mp-862561,ScSbRu2,0.0
mp-862629,ScRh2Pb,0.0
mp-862686,LiAc2Ru,0.0
mp-862719,LiY2Os,0.0
mp-8628,Te4Pt3,0.0
mp-862813,PaPbAu2,0.0
mp-862823,PaInCu2,0.0
mp-862888,CaPmZn2,0.0
mp-862892,PmCdHg2,0.0
mp-863703,Pm2MgSn,0.0
mp-863717,Pm2NiRu,0.0
mp-863743,Pm2SiAg,0.0
mp-864894,Be3Rh,0.0
mp-865094,HfNbTc2,0.0
mp-865233,TmMgZn2,0.0
mp-865254,TbYbHg2,0.0
mp-865303,Tm2CoOs,0.0
mp-865359,Tm2MgIn,0.0
mp-865384,Tm2PdRu,0.0
mp-865430,YTe,0.0
mp-865527,YAl3,0.0
mp-865529,Ti2NiIr,0.0
mp-865537,TiMnCo2,0.0
mp-865654,Y2TlAg,0.0
mp-865677,ThSnPd2,0.0
mp-865689,Y11In9Ni4,0.0
mp-865746,GaTc2W,0.0
mp-865953,AcYbZn2,0.0
mp-865984,BaTlHg2,0.0
mp-866661,K3Dy(AsS4)2,1.6683
mp-867123,TaTiOs2,0.0
mp-867233,Sc2ZnIr,0.0
mp-867257,CaPrCd2,0.0
mp-867353,ThCdAu2,0.0
mp-867788,TaGaOs2,0.0
mp-867821,TaTiMn2,0.0
mp-8894,U2Al3C4,0.0
mp-9076,NaTmS2,2.399
mp-9499,Sm2C(NO)2,3.8857
mp-972216,Sr2SmSbO6,3.6284
mp-977547,MgZnRh2,0.0
mp-977548,Nd2MgGe2,0.0
mp-978269,MgZn2,0.0
mp-979041,Tm(AlC)3,0.0761
mp-980053,YbPrAu2,0.0
mp-980071,TmLuTl2,0.0
mp-980666,Sr(DyS2)2,1.788399999999999
mp-996975,CuAgO2,0.0
mp-997038,AgPdO2,0.0
mvc-11417,Ca(CrS2)4,0.0
mvc-15041,Ca(NiO2)2,0.3397
mp-10138,Y(BRu)4,0.0
mp-1018814,NdSbTe,0.0
mp-1019357,ThAsSe,0.0
mp-1019549,BaMg2Si2O7,4.558499999999999
mp-1020896,Rb4Ge3B6O17,3.854599999999999
mp-1025025,ThCoSi,0.0
mp-1025068,NdB2Ir3,0.0
mp-1025079,EuAsPd,0.0
mp-1025283,PrIn5Rh,0.0
mp-1025520,BaIn2Pd,0.0
mp-1029520,Mg2CrN3,0.0
mp-1030649,Li6RuN4,0.0
mp-10342,Tm6ReO12,0.06820000000000001
mp-10442,Eu(Cu2As)2,0.0
mp-1056,Tb2O3,3.912
mp-1061861,TiPd2,0.0
mp-1078092,PrIn5Ir,0.0
mp-1078405,Ba2ThCu2Se5,0.7546
mp-1078592,ErAlCu,0.0
mp-1078796,EuAs3,0.0
mp-1078826,ErAlNi,0.0
mp-1078961,LiTbGe,0.0
mp-1079743,SmMgPd,0.0
mp-1080561,CaGa2Ni,0.0
mp-1080734,Ce(BOs)2,0.0
mp-1101752,PrAsS,0.19439999999999902
mp-1101849,YGaPd,0.0
mp-1101978,PrAlAu,0.0
mp-1102040,CaSnPt,0.0
mp-1102079,TmAsS,0.0403
mp-1102179,TmNiSn,0.0
mp-1102228,YbGaPd,0.0
mp-1102233,TbTc2,0.0
mp-1102445,PrNi3,0.0
mp-1103227,HfCoSi,0.0
mp-1103258,EuSiPt,0.0
mp-1103293,ZrSiOs,0.0
mp-1103536,Y3Zn11,0.0
mp-1104011,CsGdCdTe3,0.7583000000000001
mp-1104067,TiBe12,0.0
mp-1104139,Ta5(NiP)4,0.0
mp-1104641,Eu4Bi3,0.0
mp-1104664,Dy3Pt4,0.0
mp-1104676,Os(SeBr6)2,0.08750000000000001
mp-1104848,Yb(Al2Cu)4,0.0
mp-1104966,CsGdTe4,0.036599999999999
mp-1105528,Pr5As2ClO10,3.2745
mp-1105911,TiPd3,0.0
mp-1106394,ErGePd,0.0
mp-1113610,Cs2DyAgCl6,3.8325
mp-1114609,Rb2TlSbCl6,1.9851
mp-11156,TmMgGa,0.0
mp-11185,Sm3Sb4Pt7,0.0
mp-11274,BePd,0.0
mp-11317,CeFe5,0.0
mp-11356,La3Co2Sn7,0.0
mp-1147553,KCuIO6,0.0
mp-11567,ScZn12,0.0
mp-1173414,Sm6U3O17,0.050999999999999004
mp-1173753,Na2Ga2Se3,1.3637000000000001
mp-1178042,Li2CoNi3O8,0.331499999999999
mp-1183586,CaInPd2,0.0
mp-1183757,CeSmTl2,0.0
mp-1184163,ErCdAu2,0.0
mp-1184271,ErTmIn2,0.0
mp-1184524,GdDyZn2,0.0
mp-1184737,Ho2ReC2,0.0
mp-1184847,HoLuIr2,0.0
mp-1185457,Lu2CoCu,0.0
mp-1186351,NdSmIn2,0.0
mp-1187418,Ti2AlW,0.0
mp-1187739,Y,0.0
mp-1188183,LiSmGe2,0.0
mp-1188445,Zr5SiPb3,0.0
mp-1188557,Sm3In5,0.0
mp-1189135,Dy3Cu3Sb4,0.462099999999999
mp-1189510,Zr5Sn3S,0.0
mp-1189848,Tb5Bi3,0.0
mp-1190597,Ba3UMnS6,0.0
mp-1190606,Nd6Zn4Pd13,0.0
mp-1191372,Eu2Si3Ag,0.0
mp-1191656,Rb2Cd5As4,0.0
mp-1192444,Tb11In9Pd4,0.0
mp-1192459,Tm(GeRh2)2,0.0
mp-1194159,Y4Zn5Ge6,0.0531
mp-1194597,RbTaV2O8,2.8075
mp-1194953,TbH(CO2)3,3.227
mp-1195262,AgBi(IO3)4,2.4068
mp-1195273,Ba7Ga4As9,0.0
mp-1195373,Th(Se2O5)2,3.609499999999999
mp-1195667,Cs2MgGe3Se8,1.4687000000000001
mp-1195785,NaP7,1.7429000000000001
mp-1196426,Yb11AlSb9,1.070199999999999
mp-1196453,Dy6H40N8O49,2.924
mp-1196745,Sr2As2O7,3.345999999999999
mp-1196908,Li(NdGe)4,0.051000000000000004
mp-1197014,Sn2H12Cl6O7,3.3228
mp-1197091,Ta4NiTe4,0.0
mp-1197416,Sc2Ni7,0.0
mp-1197947,La2HfS5,1.1095
mp-1198205,Y3Ge13Os4,0.0
mp-11985,LaMgTl,0.0
mp-1198694,CsVPO5,2.9316
mp-1198948,Y5(Ge5Rh2)2,0.0
mp-1198953,Cs9(NbAs3)2,0.3195
mp-1198974,La2ThSe5,1.123599999999999
mp-1199029,TlP2HO7,1.9437000000000002
mp-1199038,HoCo5P3,0.0
mp-1199212,HgSb2F13,0.2194
mp-1199865,NaLa(GaS2)4,2.2582
mp-1199986,Eu(BRu)4,0.0
mp-1200427,Tm2Re3Si5,0.0
mp-1201511,Mg3(Al9V)2,0.0
mp-1201728,SmFeSb3,0.0
mp-1203041,YbCo3P2,0.0
mp-1203703,Tm(NO3)3,3.2962
mp-1203767,Lu3C4,0.0
mp-1203959,Sc4FeCl5,0.553199999999999
mp-1204194,Gd3MoO7,1.7645
mp-1204251,Ta8CoSe8,0.0
mp-1204412,Mo2PbSe2O11,2.5052000000000003
mp-1205793,NdRe2SiC,0.0
mp-1206270,LuInNi4,0.0
mp-1206533,DyCr2Si2C,0.0
mp-1206854,TiMnP,0.0
mp-1207013,Si2Rh3,0.0
mp-1207071,SmFeSi2,0.0
mp-1207074,Gd3SnC,0.0
mp-1207100,ScIn,0.0
mp-1207212,LiHfS2,0.0
mp-1207238,Tm2CdPd2,0.0
mp-1207709,YMnGaO5,1.5806
mp-1207966,U2(Al3Ir)3,0.0
mp-1208295,TiTlAsO5,2.8120000000000003
mp-1208973,Sc2Ga8Ni,0.0
mp-1209824,PrH6(CO3)3,3.3919
mp-1209892,Nd(FeAs3)4,0.0
mp-1210091,Nd3CoGe2,0.0
mp-1210192,NaFeBr4,1.016
mp-1210443,Na5(ZnSn5)2,0.0
mp-1210733,Lu4MgRh,0.0
mp-1210736,LuTl(WO4)2,2.775
mp-1211071,Nd12InCo6,0.0
mp-1211679,KCr(MoO4)2,2.9394
mp-1211847,La12Co6Pb,0.0
mp-1211871,La3In2(GaO4)3,2.7249
mp-1211950,K2CrF6,0.0
mp-1211981,K(SiAs)3,1.4137
mp-1212020,K8Zr6MnBr20,0.037999999999999
mp-1212080,HoTiClO3,3.1425
mp-1212206,Ho5(SiSb)2,0.0
mp-1212775,EuTl(WO4)2,0.0
mp-1212809,EuAl3(BO3)4,0.0
mp-1212880,Er3Fe2Si3,0.0
mp-1212884,DyRhO3,0.911999999999999
mp-1213070,Eu2Sn,0.0
mp-1213175,Er7(AgTe)2,0.0
mp-1213550,Eu2Ni12P5,0.0
mp-1214037,Ce3SiI3,0.0
mp-1214484,Ba3TmRu2O9,0.0
mp-1214682,Ba6Gd2Al4O15,3.207
mp-1215176,ZrUS2,0.0
mp-1215217,ZrNbCr4,0.0
mp-1215396,Zr4(B5Ir4)3,0.0
mp-1215523,YbSm3S4,0.0
mp-1215705,YZnCuP2,0.0724
mp-1215734,Zr5Co19P12,0.0
mp-1215946,YU2O6,0.0
mp-1215969,Yb20(CdAu3)3,0.0
mp-1216573,TmAlNi4,0.0
mp-1216757,Tm(AlFe)6,0.0
mp-1216843,V(CrS2)2,0.0
mp-1217136,Ti8Al15Rh7,0.0
mp-1217440,Te16(Mo3Ru)3,0.0
mp-1218059,SrPrMn2O6,0.0
mp-1218218,TaFe,0.0
mp-1218387,Sr2TiRuO6,0.0
mp-1218516,Sr4MnRuO8,0.0
mp-1218982,SmZnCuAs2,0.0364
mp-1219014,SmGa3Cu,0.0
mp-1219159,Sm6Ge3S14,1.2378
mp-1219190,Sm3HoS4,0.0
mp-1220026,PrErCo17,0.0
mp-1220655,Nd9Al5Se21,1.7152
mp-1220689,Nb(ZnGa)3,0.0
mp-1221153,Na4Sr2SiP4,0.952199999999999
mp-1221899,Mn2FeSbO6,1.354099999999999
mp-1222158,MgV4Cu3O14,0.34790000000000004
mp-1222657,Li2GePd,0.0
mp-1223179,LaCeIn6,0.0
mp-1223252,La2AlGe,0.0
mp-1223799,HoPaO4,2.6652
mp-1224641,GdSiPd,0.0
mp-1224869,Gd2C,0.0
mp-1225227,Fe3Co3Si2,0.0
mp-1225346,Dy3SOF5,3.6153
mp-1225409,Dy6Mn(SiS7)2,0.985599999999999
mp-1225514,ErGa2Cu3,0.0
mp-1226055,CsW3Br7,2.7127
mp-1226344,CrGeSbO6,1.7993000000000001
mp-1226502,CeNdS2,0.0
mp-1226636,CeB2Ir2Rh,0.0
mp-1227010,Ce2AlGaNi2,0.0
mp-1228133,Ba3Lu2MoO9,1.9288
mp-1228893,AlGaCo2,0.0
mp-1232170,Gd2MgS4,1.3558
mp-1246133,MgCrN2,0.0
mp-1246856,Ca3Fe3N5,0.0
mp-1272688,Ni(PtO2)3,0.34539999999999904
mp-1275946,V3O5,1.1494
mp-12931,SmTaO4,3.9804999999999993
mp-12996,LaMg2Pd,0.0
mp-13163,TbZnSn,0.0
mp-13694,PrCuO2,2.556399999999999
mp-13998,Na5AlO4,2.4192
mp-14036,KRb2RhF6,2.2045
mp-14207,Ba(ZnSb)2,0.229499999999999
mp-14294,Ba2YbSbO6,0.0
mp-1476,ScS,0.0
mp-15659,Sb2Pt3,0.0
mp-15707,TbB2C,0.0
mp-15986,Hf(CuP)2,0.0
mp-1619,Ba3Si4,0.0012000000000000001
mp-16230,Tb5Sb3,0.0
mp-16234,CsAg3Se2,0.188499999999999
mp-16261,Ca(GeRh)2,0.0
mp-16625,YbAl7Au3,0.0
mp-17319,NdCo9Si4,0.0
mp-17407,Au3F8,0.5518000000000001
mp-17516,Ca10P6SeO24,3.7379
mp-17664,LiNi2P3O10,3.9702
mp-17783,Mg3Au,0.0
mp-18383,K3NbS4,2.3437
mp-18560,NpPO4F,0.0
mp-18705,Sr3TbRhO6,2.1439
mp-18859,Sr5Cr3O12F,1.0282
mp-1913,ErPt3,0.0
mp-1914,YGa2,0.0
mp-19458,BaV10O15,0.8356000000000001
mp-19731,CeMgPd,0.0
mp-19746,NbPbS2,0.0
mp-19787,Sr(GeRu)2,0.0
mp-19901,EuInAu,0.0
mp-20046,LiCoAsO4,1.4397
mp-20588,ZrCuSiP,0.0
mp-20654,Gd2InPd2,0.0
mp-20675,HoSiRh,0.0
mp-20678,NaIn(WO4)2,3.5232
mp-21027,CaIn2Pt,0.0
mp-2117,TbN,0.18629999999999902
mp-21379,SmInIr,0.0
mp-21479,LaIn5Rh,0.0
mp-21635,CeMn2(GeO3)4,0.030599999999999003
mp-21807,K2Co2(SO4)3,2.7186
mp-21852,Nb3PbS6,0.0
mp-21907,NbSiAs,0.0
mp-21932,Na3Li3Co2F12,1.8825999999999992
mp-22337,Hf5Ga3,0.0
mp-22742,EuSn2Ir,0.0
mp-2283,ZrCo,0.0
mp-23049,KMnCl3,0.0
mp-23241,YBi,0.0
mp-23419,Sb4Cl2O5,2.6466000000000003
mp-2396,HoCo2,0.0
mp-2496,Cs4Sn23,0.0
mp-2584,TbFe3,0.0
mp-27353,SbCl2F3,1.8671000000000002
mp-27536,UBrO2,0.0
mp-27769,V3AsC,0.0
mp-28037,Mo2SBr2,1.1341
mp-28111,K3NO3,0.2238
mp-28255,LaHO,2.493999999999999
mp-28357,NbHg3F6,0.0
mp-28380,Rb3TlO3,1.4704000000000002
mp-28394,Tl2PSe3,1.551399999999999
mp-28456,Sn15Os3O14,1.614
mp-28713,Na2Te2O5,3.083099999999999
mp-2873,Ce(CrB3)2,0.0
mp-29062,ThZr2F12,5.508999999999999
mp-29069,Na(CuS)4,0.0
mp-29332,Pt(PbO2)2,0.5213
mp-29356,NaTi2O4,0.0
mp-2958,Dy(BC)2,0.0
mp-29726,LaSi2Rh3,0.0
mp-29990,La3B2N5,1.171000000000001
mp-30143,U(IO4)2,2.049799999999999
mp-30254,Ba3(LiSn2)4,0.0
mp-30376,ErInAu2,0.0
mp-30405,Li2SnAu,0.0
mp-30656,TiGaNi,0.0
mp-30763,LiPd2Pb,0.0
mp-30787,MoRh3,0.0
mp-31052,LaBPt2,0.0
mp-31098,YB2Ir3,0.0
mp-31109,Ho12InPt7,0.0
mp-31170,Cd2AgAu,0.0
mp-31263,In5S5Cl,1.368
mp-31279,Rb4P21I,1.3572
mp-31308,KTaS5,1.637
mp-31386,HoGaPd,0.0
mp-31475,Er4(Al8Pt3)3,0.0
mp-3245,SnP7Au3,0.030499999999999004
mp-337,PuBe13,0.0
mp-351,SiNi,0.0
mp-3522,MgCuSb,0.0
mp-3789,Zn2SiO4,2.7564
mp-3808,K2UO4,1.991099999999999
mp-392,U3Sb4,0.0
mp-3992,PrSF,1.253099999999999
mp-421,DyNi2,0.0
mp-436,SmRh,0.0
mp-464,HoSe,0.0
mp-4897,ScSnPd2,0.0
mp-4978,Ti2AlN,0.0
mp-504670,LiCa2Ge3,0.0
mp-505330,Tm2Mn3Si5,0.0
mp-505531,FeS,0.0
mp-505709,CsSmZnSe3,2.0223
mp-505764,Nb9Co4Ge,0.0
mp-510401,GdP,0.0
mp-510404,GdSe,0.0
mp-510441,YInPt2,0.0
mp-510619,Fe3Mo3N,0.0
mp-5214,TiTe3O8,2.7279
mp-530081,Mo15N16,0.0
mp-530588,Dy(CrS2)3,0.0
mp-532007,Li47Cu7N18,0.0
mp-540629,Al2Te2Cl7,1.4057
mp-541041,NdAg(PO3)4,3.8898
mp-541379,KSnS4,1.4139
mp-541450,In2(SO4)3,3.7541
mp-541909,Zr2(NiP)3,0.0
mp-545847,LuBi2BrO4,1.479699999999999
mp-549728,DyZnPO,1.2675
mp-550820,SmZnPO,1.3677000000000001
mp-551702,Ba2CdReO6,0.0
mp-5526,La(CoSi)2,0.0
mp-553924,Ag4PIO4,0.694199999999999
mp-554900,KMnO2,1.7773999999999992
mp-555203,Sr5B3ClO9,3.9829
mp-555717,K2Nd2IrO7,0.299199999999999
mp-555930,Pr3W(ClO2)3,3.5624000000000002
mp-556,ZrNi,0.0
mp-556178,BaAl2(GeO4)2,3.9365
mp-556837,AgAs(S8F3)2,2.7409
mp-557145,CrSbF10,1.328
mp-557432,GeClO2F5,1.7408000000000001
mp-558432,Na3P(SO)2,3.2872
mp-558617,Pr4S3N2,1.505199999999999
mp-558660,Mg2BiPO6,3.622999999999999
mp-559282,CdB2XeF10,2.8887
mp-560189,NaLi2BO3,3.9495
mp-560550,BaBi2(B2O5)2,3.3514
mp-560765,Rb4Nb35Al2O70,0.0
mp-561423,ZrTlCdF7,2.2066
mp-561433,KPuCO5,0.46429999999999905
mp-567433,BP(IBr)3,1.9337
mp-567600,Sm(SiAg)2,0.0
mp-567710,KPr3Te8,0.476599999999999
mp-567822,Sr3In11,0.0
mp-568202,Yb6Co30P19,0.0
mp-568606,CsErTa6Cl18,1.3425
mp-568831,Pr2Sc3Si4,0.0
mp-569396,BaLi2(MgGe)2,0.0
mp-569703,Ce20Mg19Zn81,0.0
mp-569935,La3(BN2)2,0.0
mp-570179,TbAu2,0.0
mp-570404,Ho4CdCo,0.0
mp-570583,P4N3Cl11,2.4877000000000002
mp-570595,DySiRu2C,0.0
mp-571335,ThBi2,0.0
mp-571506,TmAlSi,0.0
mp-572441,Cs3AuO2,1.7916
mp-574275,Li17Pb4,0.0
mp-574423,CeNi5Sn,0.0
mp-581229,Gd2Ge2O7,2.7756
mp-581427,Eu3ReO7,0.0
mp-5818,Tl4SnS4,1.7881
mp-581968,Tm2Pd2Pb,0.0
mp-582406,Gd2(Zn2Ge)3,0.0
mp-585476,Cs7Np3(Cl2O)6,0.0
mp-606377,Ce2Zn4Ru,0.0
mp-610631,LaGeAu,0.0
mp-619775,Y7C2I12N,1.0406
mp-6245,K5Nb4O12F,3.4222
mp-640383,Ho5NiSb2,0.0
mp-643656,Li5H9Pt2,0.0
mp-650532,Cs2K2Cd3O5,1.2436
mp-6603,Sr2CeIrO6,0.0
mp-662606,LuTa6Br13O3,0.9255
mp-662803,K2Ba(Ge4O9)2,2.9969
mp-667426,Bi2Te2O7,2.5594
mp-676818,Sr8(TiS3)7,0.045399999999999004
mp-681150,Pu5Rh3,0.0
mp-684034,Ba21(Cd2Sb9)2,0.7315
mp-684911,Sm2Te3,0.917099999999999
mp-720407,KH(IO3)2,3.354899999999999
mp-721252,Li10Sn(PSe6)2,1.3659
mp-723109,BeH14(I2O9)2,3.3192
mp-744,HoP,0.0
mp-752681,Eu6WO12,0.0
mp-754776,Sm2Ge5Ru3,0.0
mp-760255,Li3CuF6,0.7168000000000001
mp-760513,La2UO6,1.790099999999999
mp-771255,Cs4SiO4,2.566599999999999
mp-7733,Ba2Ti6O13,0.0
mp-773874,CuSb3(PO4)6,0.45870000000000005
mp-774426,Nb3Cr(PO4)6,2.5974999999999993
mp-7935,USbTe,0.0
mp-8018,K2RhF6,0.0
mp-8301,Gd2CF2,0.7283000000000001
mp-8504,Yb2TeO6,0.0
mp-8558,BaNpO3,0.0
mp-861640,Ti2AlRe,0.0
mp-861646,ThCdRh2,0.0
mp-861660,LiNdHg2,0.0
mp-861910,Sc3Hg,0.0
mp-862291,BeGaRh2,0.0
mp-862715,Al2PdRu,0.0
mp-862885,CaPmRh2,0.0
mp-862933,PmMgAu2,0.0
mp-863673,LiPm2Rh,0.0
mp-864949,MnGaRh2,0.0
mp-864983,MnVRu2,0.0
mp-864987,MnZnRh2,0.0
mp-865179,Hf2FeOs,0.0
mp-865211,TmInRh2,0.0
mp-865261,Lu2ZnOs,0.0
mp-865275,TmZrOs2,0.0
mp-865428,UP3,0.0
mp-865447,LuSbPd2,0.0
mp-865639,LuPaRu2,0.0
mp-865712,Ti2MnNi,0.0
mp-866005,Dy2TlCd,0.0
mp-866038,YbGdHg2,0.0
mp-866111,Ho2IrRu,0.0
mp-866176,Li2PdAu,0.0
mp-867218,SmAgHg2,0.0
mp-867477,Eu2SnHg,0.0
mp-867748,ScSnRu2,0.0
mp-867850,ScMnRh2,0.0
mp-867861,SmYMg2,0.0
mp-867909,ScCdRh2,0.0
mp-879,La3Te4,0.0
mp-915,YCd,0.0
mp-9552,LaCo5P3,0.0
mp-9578,Ba3(AlSi)2,0.0
mp-9605,Hf3Si3Ni2,0.0
mp-975896,PrNdTl2,0.0
mp-976401,Ge3Rh2Se3,0.326999999999999
mp-977355,LiYb2InGe2,0.010499999999999001
mp-977382,Ta2VRu,0.0
mp-977393,LiLu2Ru,0.0
mp-977541,Hf2TcOs,0.0
mp-977589,Tm2TlCd,0.0
mp-979260,Sc6Ga16Ru7,0.0
mp-979917,DyYRh2,0.0
mp-979981,AcYbGa2,0.0
mp-980004,SmGa2Co,0.0
mp-983460,Li2PmGa,0.0
mp-989592,Sr6Sn2NF,0.0
mp-996958,AgHO2,0.0
mp-997034,BaCuO2,0.0
mvc-10596,CaMn3P3O13,0.3416
mvc-3753,ZnWF5,2.3023
mvc-5785,Ca2CrIrO6,0.0
mp-1002136,LaAu,0.0
mp-1016109,ZrZn16,0.0
mp-1018714,HfGaCu,0.0
mp-1019363,ThTeAs,0.0
mp-1019732,EuAl2O4,0.0989
mp-1024985,ErAlGe,0.0
mp-1025095,CeCo2B2C,0.0
mp-1025136,EuAl3Cu2,0.0
mp-1025225,ErGa5Co,0.0
mp-1025240,Dy2Re2Si2C,0.0
mp-10283,SmSi3Ni,0.0
mp-1029739,Li6FeN4,0.0
mp-1066274,PtPb,0.0
mp-1069204,NdCoSi3,0.0
mp-1069330,Nd2AlNi2,0.0
mp-1069898,LaGe3Os,0.0
mp-1071252,LaGa2Rh3,0.0
mp-1071890,NdInPt4,0.0
mp-1072033,DyCu4Ag,0.0
mp-1077340,HoNi4Au,0.0
mp-1078074,UGa5Pt,0.0
mp-1078497,YbGa2Ni,0.0
mp-1078623,Zr2BIr6,0.0
mp-1078671,Sr2CaWO6,3.4908
mp-1079033,Sm(NiAs)2,0.0
mp-1079727,LuSnPt,0.0
mp-1080126,LuCuSb2,0.0
mp-1080729,CePRu2C,0.0
mp-10904,AlPt,0.0
mp-1095196,HfGeOs,0.0
mp-1095369,Sr3(GaIr)4,0.0
mp-1095370,BiPdSe,0.0
mp-10993,ErCuAs2,0.0
mp-1101824,PrGaPt,0.0
mp-1102042,TiCuGe,0.0
mp-1102140,NdSiIr,0.0
mp-1102207,ErGaNi,0.0
mp-1102776,Yb2Pt,0.0
mp-1103641,NdGeIr,0.0
mp-1104337,Y(VSn)6,0.0
mp-1104493,TbZn12,0.0
mp-1104680,Cr2FeO4,0.0
mp-1104743,Nd3Rh2,0.0
mp-1105741,Pr3Ru,0.0
mp-1105754,Er3Ge3Ru2,0.0
mp-1106190,Er4Ga12Ni,0.0
mp-11085,YbCdAu,0.0
mp-11118,CsPrCdSe3,1.9667999999999992
mp-1112679,Cs2LiNdBr6,3.991399999999999
mp-1112710,Cs2KScI6,2.3657
mp-1113598,Rb2InCuCl6,0.054999999999999
mp-11387,HfGa3,0.0
mp-11454,Hf2Pd,0.0
mp-11504,MnZn3,0.0
mp-11517,NbRu3,0.0
mp-11604,KSm2CuS4,1.0583
mp-11628,Tb2Al6Si4Pt,0.0
mp-1178355,Er2TeO2,0.9492
mp-1179734,RbF3,2.1149
mp-1180771,KCoO2,0.0
mp-1181810,K3V2(S2O9)2,1.416499999999999
mp-1181961,Cr5S8,0.0
mp-1183061,Ac2ZnSn,0.0
mp-1183118,AcLaCd2,0.0
mp-1183850,CeBi3,0.0
mp-1183888,Eu2CdSn,0.0
mp-1184347,EuMgTl2,0.0
mp-1185937,MgPb,0.0
mp-1186480,Pm2CdPb,0.0
mp-1186805,PuZnAu2,0.0
mp-1187042,SmYRh2,0.0
mp-1187620,YbNdPt2,0.0
mp-1188187,Li3(ZnSn2)2,0.0
mp-1188312,EuGePd2,0.0
mp-1188357,La5PPb3,0.0
mp-1188469,La5Ge3,0.0
mp-1188541,NbSiRu,0.0
mp-1189429,LaGaPd2,0.0
mp-1189574,YWC2,0.0
mp-1189588,Eu5CdCu2,0.0
mp-1189615,CsZrUTe5,0.0
mp-1190252,CsEr2Ag3Te5,1.1873
mp-1190334,LaTl2P2S7,2.0774
mp-1190787,ErMnB4,0.0
mp-1190872,EuSi2Ni9,0.0
mp-1191829,Li2Co12P7,0.0
mp-1192057,Ag2S2O7,2.5401
mp-1192098,Dy3FeB7,0.0
mp-1192150,Rb2U(PdSe2)3,0.0
mp-1192200,Ce11In9Ni4,0.0
mp-1192563,Lu(Al5Os)2,0.0
mp-1192820,Mn2Sb3I3O5,2.0829
mp-1192957,Li8Ce7Ge10,0.0
mp-1193928,CsAg2BiS3,1.0693
mp-1194531,Fe2B7,0.0
mp-1195093,Sr3(SnAs2)2,0.7477
mp-1195417,Cs4Ge(PSe3)4,1.3838
mp-1195436,Cd3BPO7,2.0427
mp-1195809,Gd2HfS5,1.0276
mp-1195841,VPb2Se3O10,2.3788
mp-1195875,EuSn3Sb4,0.0
mp-1195982,La2ThS5,1.4674
mp-1196917,B2Mo(PbO2)6,2.4584
mp-1198785,Eu6Sb6S17,0.0
mp-1198887,Cs3Te13Mo12,0.0
mp-1199790,Cs10P4PdSe16,1.279299999999999
mp-1199966,HoNiSn2,0.0
mp-1200130,Rb5Tl9,0.0
mp-1200172,Pr2USe5,0.0
mp-1200320,NdCo5P3,0.0
mp-1200333,La6CoCl11,0.6717999999999991
mp-1200686,Tb3Ge13Os4,0.0
mp-1202113,CeH8(SO6)2,2.143
mp-1202982,Gd3Co4Ge13,0.0
mp-1203806,Ba2GaSbS5,2.3953
mp-1204327,NaCe(GaS2)4,0.23159999999999903
mp-1205000,Nd11Cd45,0.0
mp-1205506,NdSiRu2C,0.0
mp-1205689,Nd2CdPd2,0.0
mp-1205734,YRe2SiC,0.0
mp-1205920,Er3Al3CoGe2,0.0
mp-1206014,Cs2VCl6,0.0
mp-1206045,MnAg2SnTe4,0.0
mp-1206141,DyRe2SiC,0.0
mp-1206175,EuAlGe,0.0
mp-1206269,ErSiOs2C,0.0
mp-1206755,CeTl,0.0
mp-1206924,Ba(ZnGe)2,0.0
mp-1207061,Ba(AlGa)2,0.0
mp-1207441,Zr3AgHg3F20,0.7509999999999991
mp-1207493,YbSiPd,0.0
mp-1207947,TmZnGe,0.0
mp-1207984,Tm5Ni2Sb,0.0
mp-1208190,TlBi(MoO4)2,2.6848
mp-1208533,Ta3Se12I,0.17969999999999903
mp-1209027,Sr2V2OF10,0.21400000000000002
mp-1209276,RbPr(WO4)2,3.503
mp-1209665,Rb3LiPb4,0.6909000000000001
mp-1209763,Rb2EuF5,0.090799999999999
mp-1209787,Pr3RhBr3,0.0
mp-1209813,Sm3Sn13Ru4,0.0
mp-1209918,NaY(Pd3O4)2,0.060500000000000005
mp-1210698,LuTiClO3,3.082
mp-1210803,Lu4CdPt,0.016299999999999003