material_id,pretty_formula,band_gap
mp-1208486,Tb3BBr3,0.0
mp-1208498,Ti3Zn22,0.0
mp-1208616,Tb6Al39Cr8,0.0
mp-1209351,Pr2ZnPtO6,1.665099999999999
mp-1209393,RbGd(MoO4)2,3.2095000000000002
mp-1209827,Nd(ZnP)3,0.062200000000000005
mp-1209906,NdSO,1.6705
mp-1210319,NdFeGe2O7,2.812999999999999
mp-1210365,Re3Br7,0.35990000000000005
mp-1210477,Nd23Cd4Pt7,0.0
mp-1211425,KPr(WO4)2,3.8145
mp-1211465,Li3NiF6,0.6910000000000001
mp-1211710,La3Sb5O12,3.2253
mp-1212221,Ho5BiPd2,0.0
mp-1212342,Ho4MgCo,0.0
mp-1212388,Ho(Al5Ru)2,0.0
mp-1212732,K2CdGeO4,2.3083
mp-1212859,Er3Co2Si3,0.0
mp-1212909,Er4CdIr,0.0
mp-1213083,Dy2(Al3Rh)3,0.0
mp-1213239,CsGaAgF6,0.3704
mp-1213754,Cr5Te8,0.0
mp-1213931,CeMg(BO2)5,0.11509999999999901
mp-1214093,Ca2Si5Pt3,0.0
mp-1214417,BaC6,0.0
mp-1215377,Zr4O,0.0
mp-1215945,YGa3Cu,0.0
mp-1216643,V10Si6B,0.0
mp-1217634,Tb3Sc2S7,0.0
mp-1217668,Tl6V7P5O31,1.0497
mp-1218017,Ta5S8,0.0
mp-1218660,Sr6Yb4(CdSb2)5,0.255
mp-1219315,Sm2(InSn)3,0.0
mp-1219724,PrCdIn,0.0
mp-1220566,Nb3WSe8,0.0
mp-1222183,Mg4B3Ir2,0.0
mp-1222707,LaThN2,0.0
mp-1222891,LaEuB12,0.0
mp-1223121,La2SbO2,0.0
mp-1223157,La6Cd(SiS7)2,1.941999999999999
mp-1223388,Na11(Ru4O9)4,0.0
mp-1223467,La2Ni4Ge3P,0.0
mp-1223499,KBa(AgTe2)2,0.0
mp-1224217,Ho2(B2Rh3)3,0.0
mp-1224327,Hf2Al3Au,0.0
mp-1225319,Eu2PCl,0.0
mp-1225524,Er2SiGe,0.0
mp-1226825,Cs3Sm7Te12,0.8622999999999991
mp-1227081,CaThV2O8,3.0566
mp-1227349,BaZnIn3,0.0
mp-1228781,Ba(V3S4)4,0.0
mp-1229160,Cs8(Re4S9)3,1.4582000000000002
mp-12351,PrTe3,0.0
mp-1239219,TaCr3(CuS4)2,0.0
mp-12417,Ba2CaReO6,0.0
mp-1246254,Ba8(MnN3)3,0.007699999999999
mp-12608,CuPt7,0.0
mp-12697,Sc(MnSn)6,0.0
mp-13535,Tb2ZnNi2,0.0
mp-1385,CeZn2,0.0
mp-14457,Na3Li3Ti2F12,0.0
mp-14589,Hf2Si4Ni3,0.0
mp-14636,Rb2NbAgS4,2.1942
mp-15269,Sr3CdIrO6,0.0
mp-15326,Sm3IrO7,0.0
mp-15782,KPrS2,2.3585000000000003
mp-15910,Re2SbO6,0.0
mp-16044,Ca(As2Rh3)2,0.0
mp-1606,NbAu2,0.0
mp-16245,CaSbAu,0.0
mp-16291,NaZr2PdF11,1.366
mp-16445,CsSm2CuSe4,1.0091
mp-16505,La3Al11,0.0
mp-16705,Pr2O3,3.6593
mp-16852,Ga7Ni3,0.0
mp-17260,Zn3SiNi2,0.0
mp-17424,TmGa3Ru,0.0
mp-1748,NdS,0.0
mp-1777,Li15Ge4,0.0
mp-17784,CaTiGeO5,2.8697
mp-17850,K3NaTh2O6,3.6675
mp-17968,Na2CaV4O12,2.9112
mp-18251,K2MnV2O7,2.433799999999999
mp-18334,NaHoGeO4,3.6244
mp-18352,HfTe3O8,3.843499999999999
mp-18749,NiSO4,3.266
mp-18754,DyCrO4,0.29999999999999905
mp-19098,Ba2CaWO6,3.3243
mp-19146,CrPbO4,2.0357
mp-19380,CrHgO4,1.4158
mp-19459,K2MgV2O7,0.0
mp-19497,Na5Y(MoO4)4,3.9476
mp-19818,Dy3PbC,0.0
mp-19850,MnCo2Ge,0.0
mp-19875,GdSiRu,0.0
mp-19934,CeMgPt,0.0
mp-20301,La2Pd2Pb,0.0
mp-20345,GdCoC,0.0
mp-20536,CoSn,0.0
mp-2056,Ni3Se2,0.0
mp-20840,MnCo2Sn,0.0
mp-20914,NdIn2Ir,0.0
mp-21126,V2PbO6,2.2575
mp-21246,Ba2Pb,0.0383
mp-21293,Li3In2,0.0
mp-21302,Sr2MnGaO5,0.0
mp-21412,Ce3Tl,0.0
mp-21457,Ti3Cu3O,0.0
mp-21551,In2(Ni7B2)3,0.0
mp-21718,Sr2In4Pt3,0.0
mp-21947,Ce(SO4)2,1.032
mp-22225,CeSiBO5,0.21999999999999903
mp-22300,FeCo2Ge,0.0
mp-22306,Eu2CuO4,0.0
mp-22339,ThCoSn,0.0
mp-22481,KIn4,0.0
mp-22485,TbCuSb2,0.0
mp-23077,Cs2UCl6,0.0
mp-2334,DyCu,0.0
mp-23355,PAuCl4,2.6329000000000002
mp-23515,K2CoCl4,0.789099999999999
mp-23592,Ag2Hg7(As2I3)2,0.632699999999999
mp-24152,HoH2,0.0
mp-27231,Li2TeO3,3.675
mp-27240,UCl5,0.33089999999999903
mp-27352,Sr(Ag3O2)2,0.8523000000000001
mp-27396,NiCl2,0.0
mp-27780,TcCl4,0.782899999999999
mp-27788,TaPCl10,2.3387000000000002
mp-27889,K(V5S8)2,0.0
mp-28026,TcP4,0.8460999999999991
mp-2805,LuAl3,0.0
mp-28067,ThIN,2.6895
mp-28329,TlI3,1.8526
mp-28432,Tl3Cd2I7,1.9460000000000002
mp-28447,Mg(BiO3)2,0.0388
mp-28496,K2UCl5,0.28949999999999904
mp-28608,Ga3Te3I,1.2932000000000001
mp-28733,Sc3C4,0.0
mp-28865,Os(SCl6)2,0.0541
mp-28908,Ba5(RuO5)2,0.231999999999999
mp-28928,DySBr,2.8778
mp-29358,Zr6BCl14,0.0
mp-29411,Na2B2S5,2.589299999999999
mp-29866,SnCl4,3.685399999999999
mp-30108,P2PbAu2,0.0
mp-30109,Sb2(AuF6)3,0.16720000000000002
mp-30151,CuAuSe4,0.0
mp-30178,Mg2Al5Cu6,0.0
mp-30453,DyBiPt,0.0
mp-305,TiFe,0.0
mp-30669,ThGa,0.0
mp-30722,ScHg3,0.0
mp-30723,Th2Hg,0.0
mp-30744,IrW,0.0
mp-3093,ErB2Ru3,0.0
mp-31058,Er3InN,0.0
mp-31068,P2Pb4O9,3.1994
mp-31355,Sr3Tl2O6,0.7724000000000001
mp-31418,La(SbO3)3,1.500599999999999
mp-31457,ZrSbRu,0.0
mp-3190,Er(FeB)2,0.0
mp-33432,Mg(FeO2)2,1.7022
mp-33498,Rb2CrCl4,0.5384
mp-3464,FeSiRu2,0.0
mp-3553,KTeAu,0.05040000000000001
mp-3638,Cu2P2O7,0.0
mp-3862,Ca(AlGe)2,0.0
mp-387,CeSb,0.0
mp-39105,MgTa2N3,0.0
mp-3917,Cd2GeO4,1.0923
mp-3963,K2CO3,3.649
mp-419,YbB6,0.10590000000000001
mp-4229,Nd(AgGe)2,0.0
mp-4291,Ho(NiGe)2,0.0
mp-4454,CeCo3B2,0.0
mp-4612,TiCo2Ge,0.0
mp-4953,CdGeAs2,0.4228
mp-504594,ZrBr,0.0
mp-504811,Rb2Pb4O7,0.9875
mp-505009,Fe(SbO3)2,0.0
mp-505767,K2NaInSb2,1.1444
mp-510484,Ca(Ni2Sn)2,0.0
mp-510637,EuSbO4,0.0
mp-5292,Ca(SiNi)2,0.0
mp-531184,Zr6NCl15,1.3415
mp-531717,La5Mn5O16,0.05809999999999901
mp-532413,Li5B7S13,3.5549
mp-5386,Er(SiRh)2,0.0
mp-541006,BaTlVO4,3.5893
mp-541114,Sr2RhF7,1.9779
mp-541294,SrNi9P5,0.0
mp-541715,Ba3GaP3,0.6313000000000001
mp-541721,Ba3ErRu2O9,0.0
mp-541785,GePdS3,1.3728
mp-542103,TbRh3C,0.0
mp-542120,Ba2FeO4,1.9953999999999992
mp-542121,Rb4Nb2Si8O23,3.7456
mp-542449,Sc5Cl8,0.0
mp-542545,K3Nb2AsSe11,1.173
mp-542831,Gd2SiO5,3.0838
mp-543001,Zr5Sn4,0.0
mp-549333,NdBi2IO4,1.2771
mp-549671,KLiMnO2,0.0
mp-553874,Ba2LaAg5S6,0.0
mp-554342,Hf3Cd3AgF20,0.2862
mp-554459,Pr6S4BrN3,1.2752
mp-554901,Ga2Mo(SeO5)2,3.606499999999999
mp-555172,K3Nd3(PS4)4,2.4565
mp-555358,Ba2UCu2S5,0.0
mp-556487,K2NaMoF6,3.9184
mp-556601,BiBPbO4,2.879299999999999
mp-556821,RbEu(SO4)2,0.0
mp-556993,NiBiPO5,3.8589
mp-557451,CsReOF6,2.9868
mp-557807,CsK2AuO2,2.1855
mp-558011,Cd2H2SO6,2.7656
mp-558350,Zn2TeBr2O3,3.2936
mp-558448,Pr2Ir2O7,0.0
mp-558772,Rb2ZrS4,1.9236
mp-558909,RbV3Cd3O11,2.9779999999999998
mp-559349,Sb2ClF17,0.3186
mp-559633,Cu6PbO8,0.0
mp-560861,Cs2KMnF6,1.7792999999999992
mp-560978,Ba4Al2O7,3.5745
mp-561170,Ba3ZrRu2O9,0.0
mp-561538,MgVBiO5,3.1101
mp-561965,Ca3Nb2CoO9,2.258299999999999
mp-561983,Eu3OsO7,0.0
mp-567734,AlAs3(SeCl)4,2.4318
mp-568196,Er3CoSi3,0.0
mp-568664,CaAgBi,0.0
mp-568728,Er2CoSi2,0.0
mp-568855,K2Hg(PSe3)2,1.391099999999999
mp-568961,Ba(FeAs)2,0.0
mp-569106,Yb2CdSb2,0.160999999999999
mp-569337,Na4Si2Te5,1.8643
mp-569385,DyAl2Ni,0.0
mp-570520,ZrHg3(SeCl3)2,2.5952
mp-570536,Rb2AgAu3I8,0.7644000000000001
mp-570544,Zr(SeCl6)2,2.809599999999999
mp-570832,SrPt5,0.0
mp-571210,YGaI,0.0
mp-571341,InHg6As4Cl7,1.3829
mp-572726,SbSeCl7O,1.9449
mp-5773,BaRuO3,0.0
mp-5778,AlVFe2,0.0
mp-581457,Rb15Hg16,0.0
mp-581770,Sm4Al23Ni6,0.0
mp-582245,Ce4Al23Ni6,0.0
mp-582483,Na2Th(PO4)2,4.9453
mp-582657,Ti4Te9I4O,0.4076
mp-582996,Pr2Al19Co6,0.0
mp-583034,Ba2U2O7,0.550199999999999
mp-5981,Ce2Ga12Cu,0.0
mp-605028,Te2Pd3Pb2,0.0
mp-606503,Ca3InAu3,0.0
mp-6140,PrNi2B2C,0.0
mp-619,UB4,0.0
mp-623988,GdCdPd,0.0
mp-626,La4Rh3,0.0
mp-628647,TlHg3As2Cl3,0.9063000000000001
mp-633668,K23Na8(CdIn4)12,0.0
mp-640039,Pu2InRh2,0.0
mp-640341,Mo3S7Cl4,1.6899000000000002
mp-643756,EuMgH4,0.27590000000000003
mp-644739,LaGa6,0.0
mp-650,Be5Pd,0.0
mp-652776,Rb2V(PO4)2,2.8653999999999993
mp-653973,KZnPO4,3.8885
mp-6644,LiLa2RuO6,0.329
mp-667323,Mg(GaS2)2,1.9741
mp-672217,La5Ga3,0.0
mp-674338,K16Zr12Se61,1.3747
mp-679928,Rb3Pr2(NO3)9,3.4083
mp-680284,Rb6Ta4S25,1.4823
mp-684111,Eu3Sb4S9,0.0
mp-685209,Sc39N34,0.0
mp-6931,Sr(AlSi)2,0.0
mp-6954,SrAgAs,0.0
mp-720712,Cr2H24(IN3)3,1.7647
mp-733455,Li3H6Rh,2.4521
mp-7342,Sm3Ir,0.0
mp-7400,NaAlGe,0.0
mp-753781,EuHfO3,0.5973
mp-754655,Eu2SeO2,0.0
mp-754689,Gd(AlGe)2,0.0
mp-759342,Nb9AsO25,2.1079
mp-759755,Li6V3P8O29,0.0
mp-760680,Li2Fe12P7,0.0
mp-761037,Hg(ClO3)2,2.623199999999999
mp-765597,HS2IO8,2.7666
mp-767432,Sr16V8O31,0.435899999999999
mp-768915,Na3AuO3,1.8245
mp-769319,LiNb(OF)2,3.1672000000000002
mp-774246,Nb9VO25,1.9967000000000001
mp-861666,LiRu2W,0.0
mp-861736,LiSbPd2,0.0
mp-861905,LiBiPd2,0.0
mp-862669,BeFe2Si,0.0
mp-862838,PmAlCu2,0.0
mp-863725,Pm2PdPt,0.0
mp-863734,ErPaTc2,0.0
mp-864878,ZrAlAu2,0.0
mp-864921,MgZrIr2,0.0
mp-864943,MnBe2Ir,0.0
mp-864993,DyB4Mo,0.21349999999999902
mp-865030,HfScRu2,0.0
mp-865120,NaPaO3,3.2191
mp-865141,Lu4Ni13C4,0.0
mp-865175,LiEuTl2,0.0
mp-865187,MgFeRh2,0.0
mp-865349,Li2GdTl,0.0
mp-865362,Zn3Ir,0.0
mp-865516,YPaRu2,0.0
mp-865608,LuPaOs2,0.0
mp-865807,Ti2MoIr,0.0
mp-865879,Li2AgAu,0.0
mp-865966,BeAlIr2,0.0
mp-865997,YbPrZn2,0.0
mp-866065,NdMgCd2,0.0
mp-866100,Er2CuOs,0.0
mp-866121,V3Os,0.0
mp-867171,SrLi2Sn,0.0
mp-867309,TbVB4,0.0
mp-867792,ReIr3,0.0
mp-867842,ScInRh2,0.0
mp-8794,K4UO5,2.191
mp-8953,YbAsPd,0.0
mp-9220,SmNi2B2C,0.0
mp-971855,Tm2Co3Si5,0.0
mp-972048,Zn6Mo,0.0
mp-977550,ZrScOs2,0.0
mp-978539,SmTmRu2,0.0
mp-978973,Sm2ZnHg,0.0
mp-978976,Ti6Al16Pt7,0.0
mp-979289,TaW3,0.0
mp-979712,DyYZn2,0.0
mp-983480,Hf6Al16Rh7,0.0
mp-9895,Tc2P3,0.0
mp-989547,Rb2NaInCl6,3.2146
mp-989621,LaOsN3,0.0
mp-989737,Ag,0.0
mp-998415,CsSeBr3,0.0
mp-999133,TaPd,0.0
mvc-15350,Ca2Sn3O8,2.44
mp-1007908,DyTlTe2,0.836199999999999
mp-1008903,MgAgSb,0.0
mp-10131,Zn3(Ni10B3)2,0.0
mp-1013558,Ca3BiP,0.07590000000000001
mp-1018073,HoGa,0.0
mp-1018677,DyScSb,0.0
mp-1018735,BaTi2As2O,0.0
mp-1018768,Li3LaBi2,0.169799999999999
mp-1018895,PrFeSi,0.0
mp-1019548,BaGe(S2O7)3,3.9450000000000003
mp-1020596,NaGa(GeO3)2,2.6513
mp-1025021,YbMgCu4,0.0
mp-1025071,YbB2Ir3,0.0
mp-1025242,ScGa5Co,0.0
mp-1025441,Ta2AlC,0.0
mp-1025554,PrSi2Ag,0.0
mp-10405,Yb(AlSi)2,0.0
mp-1068588,TbSi3Ir,0.0
mp-1068639,SmSi3Ir,0.0
mp-1070544,CrGa4,0.0
mp-1072248,EuSi2,0.0
mp-1077503,TiSi2,0.0
mp-10781,RbGdSe2,0.972599999999999
mp-1078316,Ce2AlRu2,0.0
mp-1078348,CeGa3Pd,0.0
mp-1078692,PrAlCu,0.0
mp-1078694,ThGaRh,0.0
mp-1079069,La2Mn2Se2O3,0.7302000000000001
mp-1079335,Er(NiB)2,0.0
mp-1079428,Sm(BIr)2,0.0
mp-1079654,Sm2MnGa6,0.0
mp-1080107,UCo,0.0
mp-1080466,Nb2PdS6,0.0
mp-10868,SmPPd,0.0
mp-1087476,K2Mg5Sn3,0.0
mp-1091386,Lu2CoGe2,0.0
mp-10933,Nd2TeS2,1.5871
mp-1095346,EuCdPt,0.0
mp-1095472,ZrGeIr,0.0
mp-1095544,ScGaPd,0.0
mp-1102117,YbAlPt,0.0
mp-1102309,Yb2Ga,0.0
mp-1102760,DyGaNi,0.0
mp-1102807,PrNiP,0.0
mp-1102933,UNiGe,0.0
mp-1103160,ScCoP,0.0
mp-1104089,Hf(Ni2As)2,0.0
mp-1104303,La3Ir2,0.0
mp-1104469,CsGdZnTe3,0.7872
mp-1104636,Er(AlC)3,0.050300000000000004
mp-1104905,TmB12,0.0
mp-1104937,Pr5Ru2,0.0
mp-1105703,Ce2Si5Ir3,0.0
mp-1105762,UIr,0.0
mp-1106017,La2InNi2,0.0
mp-1106088,Cs2Cu3SnF12,0.0
mp-1107,Th7Rh3,0.0
mp-1111078,K3RuF6,0.0
mp-1112112,Cs2TlAsBr6,1.2309
mp-1112642,CsInBr3,1.4038
mp-1113440,Cs2TmAgCl6,3.775
mp-1113444,Cs2TlAgBr6,0.0
mp-11345,ZrP,0.0
mp-11457,HfRh,0.0
mp-11580,TiCrP,0.0
mp-1173089,U2AsSe,0.0
mp-1173345,PaInO4,2.185399999999999
mp-1181682,Ce(FeSb3)4,0.11920000000000101
mp-11826,CaPd5,0.0
mp-1183065,AcAg2Pb,0.0
mp-1183219,Ba2MgTl,0.0
mp-1183437,BaEu2Mn2O7,0.0
mp-1184794,IrRh3,0.0
mp-1185250,ErMg149,0.2856
mp-1186389,PaAlFe2,0.0
mp-1186395,PaHgO3,0.0
mp-1186414,PaHgTe2,0.0
mp-1186477,Pm2TlZn,0.0
mp-1187051,Sm2CdIn,0.0
mp-1187197,Ta3Os,0.0
mp-1187420,Ti2MoOs,0.0
mp-1187489,TiTc2Ge,0.0
mp-1187647,Tm3Sn,0.0
mp-1187865,YTmRu2,0.0
mp-1187935,ZnGaNi2,0.0
mp-1188077,Zr7Cu10,0.0
mp-1188172,Ti5CuSb3,0.0
mp-1188200,Nd3Ni,0.0
mp-1188244,Lu2ReC2,0.0
mp-1188587,ErWC2,0.0
mp-1189726,TmZn3,0.0
mp-1191195,Eu2Hf2O7,0.0
mp-1191502,VIn(SeO4)2,2.2451
mp-1191678,K3NaMnCl6,2.5018000000000002
mp-1191834,Ho8Ga3Co,0.0463
mp-1192228,Ho2Mn12P7,0.0
mp-1192607,La6Mg23C,0.0
mp-1192673,Zr6Al16Rh7,0.0
mp-1193281,Sc6Ga16Ir7,0.0
mp-1193562,Hf9Re4B,0.0
mp-1193564,Tb(Al5Fe)2,0.0
mp-1193579,Ba(TmS2)2,1.746299999999999
mp-1194092,Hf9Mo4S,0.0
mp-1194339,Li3SbS3,2.400299999999999
mp-1195247,HgAsF7,2.514999999999999
mp-1195250,Zr(Zn10Co)2,0.0
mp-1195336,CeTlP2S7,0.552
mp-1195609,Pr2ZrSe5,0.7183
mp-1195718,Li4SnS4,2.3562
mp-1196273,Bi4BPO10,2.8219000000000003
mp-1196369,Y4RuBr5,0.36500000000000005
mp-1196603,Gd2Nb3Ge4,0.0
mp-1197435,Yb5Pt4,0.0
mp-1197959,CsSb2PO8,1.9821
mp-1197990,Pr23Cd4Ru7,0.0
mp-1199158,Tm11Sn10,0.0
mp-1199456,La5P12Ru19,0.0
mp-1200409,La2ZrSe5,0.8466999999999991
mp-1201412,Cs5FeO4,1.3287
mp-1201454,Sm11Sn10,0.0
mp-12021,AgBF4,3.157
mp-1202380,Dy(Ni2B)6,0.0
mp-1202826,Gd2US5,0.0
mp-1203025,Np2N3,0.0
mp-1204800,Dy3Ge13Os4,0.0
mp-1205647,La2ScSi2,0.0
mp-1205669,Ba2YMoO6,0.0
mp-1205974,Er2Al4CoGe2,0.0
mp-1206161,TmIn5Rh,0.0
mp-1206485,LaSiPt,0.0
mp-1206546,Cs2AgF6,0.0
mp-1206597,CeAlSi,0.0
mp-1206750,CrPt,0.0
mp-1206825,Lu2SeO2,2.0255
mp-1206920,K(PIr)2,0.0
mp-1207248,La2CdAu2,0.0
mp-1207393,Zr3Ga5,0.0
mp-1207911,Y2(GePt3)3,0.0
mp-1208164,Tl2SbF5,3.491399999999999
mp-1208278,Th(P3Ru)4,0.08699999999999901
mp-1208540,Tb2(Al3Rh)3,0.0
mp-1209021,Sr3Tm2(GeO4)3,3.1753
mp-1209526,PrBPt2,0.0
mp-1209802,Pr3NiGe2,0.0
mp-1209833,NdCdAu,0.0
mp-1209887,NbFeSi,0.0
mp-1210287,Pr23Cd4Ir7,0.0
mp-1210541,NdIn2Pd,0.0
mp-1210931,LiFeCl4,1.2353
mp-1211130,LuIn2Pd,0.0
mp-1211137,LiNd(WO4)2,3.6637
mp-1211238,La2SbI2,0.0
mp-1211433,Li6Yb17Hg9,0.0
mp-1211520,KFeBr4,0.9866
mp-1211542,Li3Ho3(TeO6)2,3.196799999999999
mp-1212604,GdAl3Ni2,0.0
mp-1213011,ErSbIr,0.0
mp-1213155,Er5Re2C7,0.0
mp-1213351,CsFeBr4,1.079
mp-1213352,CsLu(NbBr3)6,0.9746999999999991
mp-1213848,Ce4Ge7,0.0
mp-1213959,CaSbPd,0.0
mp-1214910,Al2CdBr8,2.9212
mp-1215367,Zr5(Te2P)2,0.0
mp-1215554,Zr2FeCo3,0.0
mp-1215672,YbAl7Cu5,0.0
mp-1216485,V4ZnCu3O14,0.32380000000000003
mp-1216715,TiNb3(AlC)2,0.0
mp-1216819,TmUTe6,0.0
mp-1217159,V2SiPb5O12,2.6660999999999992
mp-1217828,SrTi3Al8O19,2.6492
mp-1217975,Ta3TiB4,0.0
mp-1219228,Sm(Al3Fe)3,0.0
mp-1219543,Sb3RhPb4O13,0.04599999999999901
mp-1219760,Rb2Cd3SnAs4,0.011800000000000001
mp-1220146,Ni8Bi8SI2,0.0
mp-1220202,Nd4Zn3Au5,0.0
mp-1220763,Nb3Al(PO4)6,2.7621
mp-1220869,NaSrNb2O6,0.0
mp-1220871,NaAs3(PbO3)4,3.3998
mp-1220983,NaMo2(P2O7)2,1.184799999999999
mp-1221789,Mn3CrAs4,0.0
mp-1222208,Mg3(AlCu2)2,0.0
mp-1222256,Rb5Mo3O3F14,1.1405
mp-1222723,LaUO4,0.0
mp-1223012,LaNi2GeP,0.0
mp-1223486,La9Al5Se21,1.694
mp-1224833,Gd2MnCoO6,1.3117
mp-1225298,Eu2P3Pt4,0.0
mp-1225357,DyAl7Fe5,0.0
mp-1225760,Dy2CI3,0.39279999999999904
mp-1225850,K30Ga9Sb19,0.286699999999999
mp-1226429,Cs3Pr5(PS4)6,2.3179
mp-1226730,CdH6(NCl)2,3.55
mp-1227543,CaNd2Mn3O9,0.0
mp-1227831,BaSr3(CoO3)4,0.044700000000000004
mp-1229153,Cs(ThTe3)2,0.0
mp-1275487,Ca2FeWO6,2.5066
mp-12974,Pr2CdPd2,0.0
mp-1298582,Mg2MnWO6,2.7199
mp-13376,SmZnRh,0.0
mp-13453,BePd3,0.0
mp-13619,ScSi7Rh3,0.0
mp-13687,Cs2KAgF6,0.6910000000000001
mp-14242,Tl2GeSe3,1.1446
mp-1560,LaTe,0.0
mp-15779,Mg2SiNi3,0.0
mp-1637,Re2P,0.0
mp-1651,Th2Al,0.0
mp-16528,Al6Re,0.0
mp-16595,K3DySi2O7,3.7064
mp-16597,K3ErSi2O7,3.7375
mp-16624,ErAl7Au3,0.0
mp-16836,RbNa2Si17,0.0
mp-16848,Tl3PS4,2.3082000000000003
mp-16882,ZnMoO4,3.5646
mp-1698,SrSn,0.0
mp-17449,Tc3P,0.0
mp-17490,Rb5SiAs3,0.376799999999999
mp-17559,Y2TiO5,3.2990999999999993
mp-17578,Yb4Ge6Ir7,0.0
mp-17695,Sc5Sn3,0.0
mp-17730,K2SnO3,2.603099999999999
mp-17980,K2MoS4,1.411699999999999
mp-18125,Ag(AuF4)2,0.2641
mp-18305,Rb3AsSe4,1.227
mp-18309,Ba2CdS3,2.0892
mp-18315,Cs6Si2O7,3.164799999999999
mp-18331,GdCrO3,2.625899999999999
mp-18672,CsDy2Cu3Se5,1.2941999999999991
mp-18734,HoVO4,2.982
mp-18983,ErNiO3,0.0
mp-19047,MgMoO4,3.7851
mp-19227,YMnO3,0.0367
mp-20004,Zr2InC,0.0
mp-20044,La(NiAs)2,0.0
mp-20404,Sm2InPd2,0.0
mp-20809,Cr4InCuSe8,0.0
mp-20826,CuTe,0.0
mp-20855,Eu(Sb3Ru)4,0.0
mp-2089,ZrTe3,0.0
mp-21357,U2Fe2Sn,0.0
mp-21401,TbSnPd,0.0
mp-21421,Pu2SO2,0.0
mp-21578,KCu4(AsO4)3,0.14600000000000002
mp-21806,YNi5Ge3,0.0
mp-21866,Dy2InAu2,0.0
mp-2187,TiSb,0.0
mp-22326,Mg4As6Rh7,0.0
mp-22367,PdPbO2,0.0
mp-22374,U(CuSi)2,0.0
mp-22442,Ba2NaOsO6,0.0
mp-2294,Al3Ir,0.0
mp-23003,Ce2BiO2,0.0
mp-23261,I2O5,2.7472000000000003
mp-2443,DyHg,0.0
mp-2532,PrTe,0.0
mp-27436,PaCl5,2.4206
mp-27700,Sb4Br2O5,2.3810000000000002
mp-27779,Hg(Mo3Cl7)2,1.7411
mp-27804,Rb3Cu2Cl7,0.19130000000000003
mp-2804,LaP2,0.6304999999999991
mp-28156,NaGdCl4,0.0
mp-28211,IrS3Cl11,1.8439
mp-28999,Sn4B3Ir7,0.0
mp-2921,Gd3Ga5O12,3.0175
mp-2932,Y2Si4Mo3,0.0
mp-29401,Er5C2Br9,0.8865000000000001
mp-29612,RbEu2I5,1.2759
mp-29716,TaTeBr9,2.2297000000000002
mp-29833,Bi2(SeO3)3,3.391899999999999
mp-29950,Nb3Cl8,0.1512
mp-30290,Nd2Sn3,0.0
mp-3040,TbCo3B2,0.0
mp-30413,TbPbAu,0.0
mp-30415,PrAu2,0.0
mp-30745,Ir3W,0.0
mp-30975,Na3BO3,2.9547
mp-31057,Ho3InN,0.0
mp-31297,ScInPt,0.0
mp-31440,LuZrSb,0.0
mp-31469,Hf5CuSn3,0.0
mp-31763,Ca2FeReO6,0.0
mp-3292,Tb(CoSi)2,0.0
mp-3329,Tb(NiGe)2,0.0
mp-3732,Ti2CS,0.0
mp-3769,ErBRh3,0.0
mp-3907,Er(SiIr)2,0.0
mp-4050,Eu(AsRu)2,0.0
mp-435,ThSn3,0.0
mp-4562,La(GeRh)2,0.0
mp-4911,Th(CuGe)2,0.0
mp-504787,NpF4,0.0
mp-504852,Cs2Na3InO4,2.0654
mp-504957,RbReCl4,1.0283
mp-505071,Si2Pd9,0.0
mp-505102,NaMo3P3O16,1.744499999999999
mp-505142,Np(SiPt)2,0.0
mp-505484,PrGePt,0.0
mp-505517,BaNb4O6,0.0
mp-510400,GdIr3,0.0
mp-5142,Sn3Te3Ir2,0.395999999999999
mp-5383,NdNiC2,0.0
mp-540991,BaNi9As5,0.0
mp-541751,Ni4(Bi4I)3,0.0
mp-5418,Li6Zr2O7,3.9436
mp-541859,Tb12(OsC3)5,0.0
mp-541947,Rb2Th(PSe3)3,1.3674
mp-542013,Rb4Zr3Se14,1.4612
mp-542537,SrIn2Rh,0.0
mp-542596,Hg(SbS2)4,1.132499999999999
mp-542779,GdAg,0.0
mp-542953,CaZn3Ni2,0.0
mp-543033,Ce3S3N,0.0
mp-545522,CoBiO3,0.0
mp-554808,SnH22(Cl3O5)2,3.1145
mp-555399,SrFe3(PO4)3,0.0
mp-555534,K4MnMo4O15,3.0885
mp-555850,LuSF,2.645699999999999
mp-556259,Ba3EuRu2O9,0.022600000000000002
mp-556979,CsSmGeS4,2.5112
mp-557132,Os2O3F7,0.6016
mp-5577,Ce(GeRh)2,0.0
mp-557871,CuAsPbO4,1.8147000000000002
mp-558000,LaSbMo2O9,3.259299999999999
mp-558075,K2U(MoO5)2,0.0
mp-558592,Sb8Br2O11,2.6389
mp-558910,Li2U3(PO5)4,2.1409
mp-559019,Nd6S4BrN3,1.2843
mp-559808,Cs3PO4,3.5737
mp-560366,XeF6,2.7851
mp-560380,Ba4Ho(RuO4)3,0.0
mp-560884,TaSCl7O,2.8496
mp-560950,K2NaTlO3,1.6095000000000002
mp-561005,SrBi6(PO5)4,3.5295
mp-567408,Sm(SiOs)2,0.0
mp-567415,Nd2B5,0.0
mp-567517,Er5(CoTe)2,0.0
mp-568020,Tl3SiTe3,1.0749
mp-568681,Mg8BPt4,0.0
mp-568694,Na2UBr6,0.0
mp-568793,Ca28Ga11,0.0
mp-568895,BaSbAu,0.08950000000000001
mp-569126,AgBi(PSe3)2,1.3564999999999992
mp-569388,Te2Ir,0.0
mp-569563,Ba3Zr6BeCl18,1.026799999999999
mp-569819,Th7Os3,0.0
mp-569823,YInAg2,0.0
mp-570412,Yb(NiP)2,0.0
mp-571216,Sr3(AlGe2)2,0.0
mp-571331,Tb4Ga12Pd,0.0
mp-572526,SbBr(OF3)2,1.9974
mp-572805,Cs2I4O11,2.9267000000000003
mp-573096,Cs4UC3O11,2.1618
mp-578,GaAg2,0.0
mp-579463,Cu2Pb(SeO3)3,0.12279999999999901
mp-579544,Ca6Cu2Sn7,0.0
mp-579560,Cs3Sb2Br9,1.9801000000000002
mp-581716,Sr(InAu)3,0.0
mp-582389,Eu2B5Os3,0.0
mp-6019,Sr2YNbO6,3.1996
mp-612861,La(ReSi)2,0.0
mp-6145,Ba2LuRuO6,0.07160000000000001
mp-616327,In3Te3I,1.136699999999999
mp-617632,La3AgGeS7,0.044500000000000005
mp-6200,Ba2NdRuO6,0.165999999999999
mp-622048,Cs3Mo6(P5O19)2,0.0
mp-623590,RbV2SeO7,2.013899999999999
mp-624186,La9B3C6Br5,0.0
mp-624492,Li(Fe3Ge2)2,0.0
mp-628804,K2EuSiSe5,0.352599999999999
mp-634446,CsAl(H2N)4,2.7805
mp-636565,YbIn5Ir,0.0
mp-640089,CeCd11,0.0
mp-642493,Hf3Al3C5,0.0
mp-645425,Pr7C3I10,0.0
mp-645695,La3LuSe6,0.484
mp-654139,Nd2Ti4O11,3.1495
mp-662535,PbSe2O5,3.1399
mp-669318,Eu5Si(Cl3O2)2,0.8147000000000001
mp-672251,CsGaBr4,3.3567
mp-672299,YInNi,0.0
mp-672376,Re2Cl7O3,0.31829999999999903
mp-674,LaPd3,0.0
mp-6748,Cs2Ti(Si2O5)3,3.5176
mp-677244,Tb5(RuO6)2,0.0
mp-685878,Mg9(In13S24)2,0.16159999999999902
mp-6956,La(FeP)2,0.0
mp-707195,KSiHO3,4.7722999999999995
mp-735715,YbV4O8,0.897899999999999
mp-7365,Sr(SiAu)2,0.0
mp-745159,MoPH3O7,3.228399999999999
mp-755357,NdAsO4,3.7721
mp-756315,EuVO3,0.0
mp-7592,AgF,0.0
mp-759861,Yb2P4O13,0.0
mp-765626,LiV(OF)2,2.26
mp-768285,Be2GeO4,3.990299999999999
mp-770492,Li24Mn11CrO36,1.2313
mp-771136,Ho2(SeO4)3,3.8112
mp-772087,Er3Sb5O12,3.117599999999999
mp-772617,Zn(NO3)2,3.4049
mp-776,LaCd,0.0
mp-7881,Sr(CdGe)2,0.0
mp-8150,Ba(CdSb)2,0.0
mp-8198,Rb3Cu5O4,1.532399999999999
mp-8546,SmB4,0.0
mp-861902,EuTl2Cd,0.0
mp-861903,LiBiRh2,0.0
mp-861914,Ba3Co(CN)3,0.843499999999999
mp-861983,Ti2MnFe,0.0
mp-862319,Ac2CdSn,0.0
mp-862372,Sc2RuRh,0.0
mp-862763,Pr(Al2Cu)4,0.0
mp-862776,TmPaOs2,0.0
mp-862860,AcInAu2,0.0
mp-862866,PaTe3,0.0
mp-862886,CaPmPt2,0.0
mp-862910,PmH3,0.0
mp-862979,Pm2AgGe,0.0
mp-863405,Mn8PbO16,0.027000000000000003
mp-863660,Pm2CoIr,0.0
mp-865015,MnSiRh2,0.0
mp-865032,Mn2PtRh,0.0
mp-865097,NaHgPd2,0.0
mp-865146,MgAsPt5,0.0
mp-865186,MgGaIr2,0.0
mp-865230,TmMgRh2,0.0
mp-865249,TmSnRu2,0.0
mp-865406,Lu2ZnAu,0.0
mp-865585,VGeRu2,0.0
mp-865744,YbCdPd2,0.0
mp-865864,Tm(Al2Cu)4,0.0